[ atomtypes ]
; name at.num mass charge ptype sigma epsilon
SI 14 28.08600 0.000000 A 0.4150 0.3891120
OM 8 15.99940 0.000000 A 0.3470 0.2259360
OA 8 15.99940 0.000000 A 0.3470 0.5104480
HG 1 2.01600 0.000000 A 0.1085 0.0627600
ha 1 1.008000 0.00000000 A 0.26254785 0.0673624
ca 6 12.010000 0.00000000 A 0.33152123 0.4133792
si 14 28.085000 0.00000000 A 0.4150 0.3891120

[ moleculetype ]
; name nrexcl
MSN_7_3 3

[ atoms ]
; nr type resnr resid atom cgnr charge mass
1 OM 1 OM OM1 1 -0.550000 15.99940
2 OM 2 OM OM1 2 -0.550000 15.99940
3 OM 3 OM OM1 3 -0.550000 15.99940
4 OM 4 OM OM1 4 -0.550000 15.99940
5 OM 5 OM OM1 5 -0.550000 15.99940
6 OM 6 OM OM1 6 -0.550000 15.99940
7 OM 7 OM OM1 7 -0.550000 15.99940
8 OM 8 OM OM1 8 -0.550000 15.99940
9 OM 9 OM OM1 9 -0.550000 15.99940
10 OM 10 OM OM1 10 -0.550000 15.99940
11 OM 11 OM OM1 11 -0.550000 15.99940
12 OM 12 OM OM1 12 -0.550000 15.99940
13 OM 13 OM OM1 13 -0.550000 15.99940
14 OM 14 OM OM1 14 -0.550000 15.99940
15 OM 15 OM OM1 15 -0.550000 15.99940
16 OM 16 OM OM1 16 -0.550000 15.99940
17 OM 17 OM OM1 17 -0.550000 15.99940
18 OM 18 OM OM1 18 -0.550000 15.99940
19 OM 19 OM OM1 19 -0.550000 15.99940
20 OM 20 OM OM1 20 -0.550000 15.99940
21 OM 21 OM OM1 21 -0.550000 15.99940
22 OM 22 OM OM1 22 -0.550000 15.99940
23 OM 23 OM OM1 23 -0.550000 15.99940
24 OM 24 OM OM1 24 -0.550000 15.99940
25 OM 25 OM OM1 25 -0.550000 15.99940
26 OM 26 OM OM1 26 -0.550000 15.99940
27 OM 27 OM OM1 27 -0.550000 15.99940
28 OM 28 OM OM1 28 -0.550000 15.99940
29 OM 29 OM OM1 29 -0.550000 15.99940
30 OM 30 OM OM1 30 -0.550000 15.99940
31 OM 31 OM OM1 31 -0.550000 15.99940
32 OM 32 OM OM1 32 -0.550000 15.99940
33 OM 33 OM OM1 33 -0.550000 15.99940
34 OM 34 OM OM1 34 -0.550000 15.99940
35 OM 35 OM OM1 35 -0.550000 15.99940
36 OM 36 OM OM1 36 -0.550000 15.99940
37 OM 37 OM OM1 37 -0.550000 15.99940
38 OM 38 OM OM1 38 -0.550000 15.99940
39 OM 39 OM OM1 39 -0.550000 15.99940
40 OM 40 OM OM1 40 -0.550000 15.99940
41 OM 41 OM OM1 41 -0.550000 15.99940
42 OM 42 OM OM1 42 -0.550000 15.99940
43 OM 43 OM OM1 43 -0.550000 15.99940
44 OM 44 OM OM1 44 -0.550000 15.99940
45 OM 45 OM OM1 45 -0.550000 15.99940
46 OM 46 OM OM1 46 -0.550000 15.99940
47 OM 47 OM OM1 47 -0.550000 15.99940
48 OM 48 OM OM1 48 -0.550000 15.99940
49 OM 49 OM OM1 49 -0.550000 15.99940
50 OM 50 OM OM1 50 -0.550000 15.99940
51 OM 51 OM OM1 51 -0.550000 15.99940
52 OM 52 OM OM1 52 -0.550000 15.99940
53 OM 53 OM OM1 53 -0.550000 15.99940
54 OM 54 OM OM1 54 -0.550000 15.99940
55 OM 55 OM OM1 55 -0.550000 15.99940
56 OM 56 OM OM1 56 -0.550000 15.99940
57 OM 57 OM OM1 57 -0.550000 15.99940
58 OM 58 OM OM1 58 -0.550000 15.99940
59 OM 59 OM OM1 59 -0.550000 15.99940
60 OM 60 OM OM1 60 -0.550000 15.99940
61 OM 61 OM OM1 61 -0.550000 15.99940
62 OM 62 OM OM1 62 -0.550000 15.99940
63 OM 63 OM OM1 63 -0.550000 15.99940
64 OM 64 OM OM1 64 -0.550000 15.99940
65 OM 65 OM OM1 65 -0.550000 15.99940
66 OM 66 OM OM1 66 -0.550000 15.99940
67 OM 67 OM OM1 67 -0.550000 15.99940
68 OM 68 OM OM1 68 -0.550000 15.99940
69 OM 69 OM OM1 69 -0.550000 15.99940
70 OM 70 OM OM1 70 -0.550000 15.99940
71 OM 71 OM OM1 71 -0.550000 15.99940
72 OM 72 OM OM1 72 -0.550000 15.99940
73 OM 73 OM OM1 73 -0.550000 15.99940
74 OM 74 OM OM1 74 -0.550000 15.99940
75 OM 75 OM OM1 75 -0.550000 15.99940
76 OM 76 OM OM1 76 -0.550000 15.99940
77 OM 77 OM OM1 77 -0.550000 15.99940
78 OM 78 OM OM1 78 -0.550000 15.99940
79 OM 79 OM OM1 79 -0.550000 15.99940
80 OM 80 OM OM1 80 -0.550000 15.99940
81 OM 81 OM OM1 81 -0.550000 15.99940
82 OM 82 OM OM1 82 -0.550000 15.99940
83 OM 83 OM OM1 83 -0.550000 15.99940
84 OM 84 OM OM1 84 -0.550000 15.99940
85 OM 85 OM OM1 85 -0.550000 15.99940
86 OM 86 OM OM1 86 -0.550000 15.99940
87 OM 87 OM OM1 87 -0.550000 15.99940
88 OM 88 OM OM1 88 -0.550000 15.99940
89 OM 89 OM OM1 89 -0.550000 15.99940
90 OM 90 OM OM1 90 -0.550000 15.99940
91 OM 91 OM OM1 91 -0.550000 15.99940
92 OM 92 OM OM1 92 -0.550000 15.99940
93 OM 93 OM OM1 93 -0.550000 15.99940
94 OM 94 OM OM1 94 -0.550000 15.99940
95 OM 95 OM OM1 95 -0.550000 15.99940
96 OM 96 OM OM1 96 -0.550000 15.99940
97 OM 97 OM OM1 97 -0.550000 15.99940
98 OM 98 OM OM1 98 -0.550000 15.99940
99 OM 99 OM OM1 99 -0.550000 15.99940
100 OM 100 OM OM1 100 -0.550000 15.99940
101 OM 101 OM OM1 101 -0.550000 15.99940
102 OM 102 OM OM1 102 -0.550000 15.99940
103 OM 103 OM OM1 103 -0.550000 15.99940
104 OM 104 OM OM1 104 -0.550000 15.99940
105 OM 105 OM OM1 105 -0.550000 15.99940
106 OM 106 OM OM1 106 -0.550000 15.99940
107 OM 107 OM OM1 107 -0.550000 15.99940
108 OM 108 OM OM1 108 -0.550000 15.99940
109 OM 109 OM OM1 109 -0.550000 15.99940
110 OM 110 OM OM1 110 -0.550000 15.99940
111 OM 111 OM OM1 111 -0.550000 15.99940
112 OM 112 OM OM1 112 -0.550000 15.99940
113 OM 113 OM OM1 113 -0.550000 15.99940
114 OM 114 OM OM1 114 -0.550000 15.99940
115 OM 115 OM OM1 115 -0.550000 15.99940
116 OM 116 OM OM1 116 -0.550000 15.99940
117 OM 117 OM OM1 117 -0.550000 15.99940
118 OM 118 OM OM1 118 -0.550000 15.99940
119 OM 119 OM OM1 119 -0.550000 15.99940
120 OM 120 OM OM1 120 -0.550000 15.99940
121 OM 121 OM OM1 121 -0.550000 15.99940
122 OM 122 OM OM1 122 -0.550000 15.99940
123 OM 123 OM OM1 123 -0.550000 15.99940
124 OM 124 OM OM1 124 -0.550000 15.99940
125 OM 125 OM OM1 125 -0.550000 15.99940
126 OM 126 OM OM1 126 -0.550000 15.99940
127 OM 127 OM OM1 127 -0.550000 15.99940
128 OM 128 OM OM1 128 -0.550000 15.99940
129 OM 129 OM OM1 129 -0.550000 15.99940
130 OM 130 OM OM1 130 -0.550000 15.99940
131 OM 131 OM OM1 131 -0.550000 15.99940
132 OM 132 OM OM1 132 -0.550000 15.99940
133 OM 133 OM OM1 133 -0.550000 15.99940
134 OM 134 OM OM1 134 -0.550000 15.99940
135 OM 135 OM OM1 135 -0.550000 15.99940
136 OM 136 OM OM1 136 -0.550000 15.99940
137 OM 137 OM OM1 137 -0.550000 15.99940
138 OM 138 OM OM1 138 -0.550000 15.99940
139 OM 139 OM OM1 139 -0.550000 15.99940
140 OM 140 OM OM1 140 -0.550000 15.99940
141 OM 141 OM OM1 141 -0.550000 15.99940
142 OM 142 OM OM1 142 -0.550000 15.99940
143 OM 143 OM OM1 143 -0.550000 15.99940
144 OM 144 OM OM1 144 -0.550000 15.99940
145 OM 145 OM OM1 145 -0.550000 15.99940
146 OM 146 OM OM1 146 -0.550000 15.99940
147 OM 147 OM OM1 147 -0.550000 15.99940
148 OM 148 OM OM1 148 -0.550000 15.99940
149 OM 149 OM OM1 149 -0.550000 15.99940
150 OM 150 OM OM1 150 -0.550000 15.99940
151 OM 151 OM OM1 151 -0.550000 15.99940
152 OM 152 OM OM1 152 -0.550000 15.99940
153 OM 153 OM OM1 153 -0.550000 15.99940
154 OM 154 OM OM1 154 -0.550000 15.99940
155 OM 155 OM OM1 155 -0.550000 15.99940
156 OM 156 OM OM1 156 -0.550000 15.99940
157 OM 157 OM OM1 157 -0.550000 15.99940
158 OM 158 OM OM1 158 -0.550000 15.99940
159 OM 159 OM OM1 159 -0.550000 15.99940
160 OM 160 OM OM1 160 -0.550000 15.99940
161 OM 161 OM OM1 161 -0.550000 15.99940
162 OM 162 OM OM1 162 -0.550000 15.99940
163 OM 163 OM OM1 163 -0.550000 15.99940
164 OM 164 OM OM1 164 -0.550000 15.99940
165 OM 165 OM OM1 165 -0.550000 15.99940
166 OM 166 OM OM1 166 -0.550000 15.99940
167 OM 167 OM OM1 167 -0.550000 15.99940
168 OM 168 OM OM1 168 -0.550000 15.99940
169 OM 169 OM OM1 169 -0.550000 15.99940
170 OM 170 OM OM1 170 -0.550000 15.99940
171 OM 171 OM OM1 171 -0.550000 15.99940
172 OM 172 OM OM1 172 -0.550000 15.99940
173 OM 173 OM OM1 173 -0.550000 15.99940
174 OM 174 OM OM1 174 -0.550000 15.99940
175 OM 175 OM OM1 175 -0.550000 15.99940
176 OM 176 OM OM1 176 -0.550000 15.99940
177 OM 177 OM OM1 177 -0.550000 15.99940
178 OM 178 OM OM1 178 -0.550000 15.99940
179 OM 179 OM OM1 179 -0.550000 15.99940
180 OM 180 OM OM1 180 -0.550000 15.99940
181 OM 181 OM OM1 181 -0.550000 15.99940
182 OM 182 OM OM1 182 -0.550000 15.99940
183 OM 183 OM OM1 183 -0.550000 15.99940
184 OM 184 OM OM1 184 -0.550000 15.99940
185 OM 185 OM OM1 185 -0.550000 15.99940
186 OM 186 OM OM1 186 -0.550000 15.99940
187 OM 187 OM OM1 187 -0.550000 15.99940
188 OM 188 OM OM1 188 -0.550000 15.99940
189 OM 189 OM OM1 189 -0.550000 15.99940
190 OM 190 OM OM1 190 -0.550000 15.99940
191 OM 191 OM OM1 191 -0.550000 15.99940
192 OM 192 OM OM1 192 -0.550000 15.99940
193 OM 193 OM OM1 193 -0.550000 15.99940
194 OM 194 OM OM1 194 -0.550000 15.99940
195 OM 195 OM OM1 195 -0.550000 15.99940
196 OM 196 OM OM1 196 -0.550000 15.99940
197 OM 197 OM OM1 197 -0.550000 15.99940
198 OM 198 OM OM1 198 -0.550000 15.99940
199 OM 199 OM OM1 199 -0.550000 15.99940
200 OM 200 OM OM1 200 -0.550000 15.99940
201 OM 201 OM OM1 201 -0.550000 15.99940
202 OM 202 OM OM1 202 -0.550000 15.99940
203 OM 203 OM OM1 203 -0.550000 15.99940
204 OM 204 OM OM1 204 -0.550000 15.99940
205 OM 205 OM OM1 205 -0.550000 15.99940
206 OM 206 OM OM1 206 -0.550000 15.99940
207 OM 207 OM OM1 207 -0.550000 15.99940
208 OM 208 OM OM1 208 -0.550000 15.99940
209 OM 209 OM OM1 209 -0.550000 15.99940
210 OM 210 OM OM1 210 -0.550000 15.99940
211 OM 211 OM OM1 211 -0.550000 15.99940
212 OM 212 OM OM1 212 -0.550000 15.99940
213 OM 213 OM OM1 213 -0.550000 15.99940
214 OM 214 OM OM1 214 -0.550000 15.99940
215 OM 215 OM OM1 215 -0.550000 15.99940
216 OM 216 OM OM1 216 -0.550000 15.99940
217 OM 217 OM OM1 217 -0.550000 15.99940
218 OM 218 OM OM1 218 -0.550000 15.99940
219 OM 219 OM OM1 219 -0.550000 15.99940
220 OM 220 OM OM1 220 -0.550000 15.99940
221 OM 221 OM OM1 221 -0.550000 15.99940
222 OM 222 OM OM1 222 -0.550000 15.99940
223 OM 223 OM OM1 223 -0.550000 15.99940
224 OM 224 OM OM1 224 -0.550000 15.99940
225 OM 225 OM OM1 225 -0.550000 15.99940
226 OM 226 OM OM1 226 -0.550000 15.99940
227 OM 227 OM OM1 227 -0.550000 15.99940
228 OM 228 OM OM1 228 -0.550000 15.99940
229 OM 229 OM OM1 229 -0.550000 15.99940
230 OM 230 OM OM1 230 -0.550000 15.99940
231 OM 231 OM OM1 231 -0.550000 15.99940
232 OM 232 OM OM1 232 -0.550000 15.99940
233 OM 233 OM OM1 233 -0.550000 15.99940
234 OM 234 OM OM1 234 -0.550000 15.99940
235 OM 235 OM OM1 235 -0.550000 15.99940
236 OM 236 OM OM1 236 -0.550000 15.99940
237 OM 237 OM OM1 237 -0.550000 15.99940
238 OM 238 OM OM1 238 -0.550000 15.99940
239 OM 239 OM OM1 239 -0.550000 15.99940
240 OM 240 OM OM1 240 -0.550000 15.99940
241 OM 241 OM OM1 241 -0.550000 15.99940
242 OM 242 OM OM1 242 -0.550000 15.99940
243 OM 243 OM OM1 243 -0.550000 15.99940
244 OM 244 OM OM1 244 -0.550000 15.99940
245 OM 245 OM OM1 245 -0.550000 15.99940
246 OM 246 OM OM1 246 -0.550000 15.99940
247 OM 247 OM OM1 247 -0.550000 15.99940
248 OM 248 OM OM1 248 -0.550000 15.99940
249 OM 249 OM OM1 249 -0.550000 15.99940
250 OM 250 OM OM1 250 -0.550000 15.99940
251 OM 251 OM OM1 251 -0.550000 15.99940
252 OM 252 OM OM1 252 -0.550000 15.99940
253 OM 253 OM OM1 253 -0.550000 15.99940
254 OM 254 OM OM1 254 -0.550000 15.99940
255 OM 255 OM OM1 255 -0.550000 15.99940
256 OM 256 OM OM1 256 -0.550000 15.99940
257 OM 257 OM OM1 257 -0.550000 15.99940
258 OM 258 OM OM1 258 -0.550000 15.99940
259 OM 259 OM OM1 259 -0.550000 15.99940
260 OM 260 OM OM1 260 -0.550000 15.99940
261 OM 261 OM OM1 261 -0.550000 15.99940
262 OM 262 OM OM1 262 -0.550000 15.99940
263 OM 263 OM OM1 263 -0.550000 15.99940
264 OM 264 OM OM1 264 -0.550000 15.99940
265 OM 265 OM OM1 265 -0.550000 15.99940
266 OM 266 OM OM1 266 -0.550000 15.99940
267 OM 267 OM OM1 267 -0.550000 15.99940
268 OM 268 OM OM1 268 -0.550000 15.99940
269 OM 269 OM OM1 269 -0.550000 15.99940
270 OM 270 OM OM1 270 -0.550000 15.99940
271 OM 271 OM OM1 271 -0.550000 15.99940
272 OM 272 OM OM1 272 -0.550000 15.99940
273 OM 273 OM OM1 273 -0.550000 15.99940
274 OM 274 OM OM1 274 -0.550000 15.99940
275 OM 275 OM OM1 275 -0.550000 15.99940
276 OM 276 OM OM1 276 -0.550000 15.99940
277 OM 277 OM OM1 277 -0.550000 15.99940
278 OM 278 OM OM1 278 -0.550000 15.99940
279 OM 279 OM OM1 279 -0.550000 15.99940
280 OM 280 OM OM1 280 -0.550000 15.99940
281 OM 281 OM OM1 281 -0.550000 15.99940
282 OM 282 OM OM1 282 -0.550000 15.99940
283 OM 283 OM OM1 283 -0.550000 15.99940
284 OM 284 OM OM1 284 -0.550000 15.99940
285 OM 285 OM OM1 285 -0.550000 15.99940
286 OM 286 OM OM1 286 -0.550000 15.99940
287 OM 287 OM OM1 287 -0.550000 15.99940
288 OM 288 OM OM1 288 -0.550000 15.99940
289 OM 289 OM OM1 289 -0.550000 15.99940
290 OM 290 OM OM1 290 -0.550000 15.99940
291 OM 291 OM OM1 291 -0.550000 15.99940
292 OM 292 OM OM1 292 -0.550000 15.99940
293 OM 293 OM OM1 293 -0.550000 15.99940
294 OM 294 OM OM1 294 -0.550000 15.99940
295 OM 295 OM OM1 295 -0.550000 15.99940
296 OM 296 OM OM1 296 -0.550000 15.99940
297 OM 297 OM OM1 297 -0.550000 15.99940
298 OM 298 OM OM1 298 -0.550000 15.99940
299 OM 299 OM OM1 299 -0.550000 15.99940
300 OM 300 OM OM1 300 -0.550000 15.99940
301 OM 301 OM OM1 301 -0.550000 15.99940
302 OM 302 OM OM1 302 -0.550000 15.99940
303 OM 303 OM OM1 303 -0.550000 15.99940
304 OM 304 OM OM1 304 -0.550000 15.99940
305 OM 305 OM OM1 305 -0.550000 15.99940
306 OM 306 OM OM1 306 -0.550000 15.99940
307 OM 307 OM OM1 307 -0.550000 15.99940
308 OM 308 OM OM1 308 -0.550000 15.99940
309 OM 309 OM OM1 309 -0.550000 15.99940
310 OM 310 OM OM1 310 -0.550000 15.99940
311 OM 311 OM OM1 311 -0.550000 15.99940
312 OM 312 OM OM1 312 -0.550000 15.99940
313 OM 313 OM OM1 313 -0.550000 15.99940
314 OM 314 OM OM1 314 -0.550000 15.99940
315 OM 315 OM OM1 315 -0.550000 15.99940
316 OM 316 OM OM1 316 -0.550000 15.99940
317 OM 317 OM OM1 317 -0.550000 15.99940
318 OM 318 OM OM1 318 -0.550000 15.99940
319 OM 319 OM OM1 319 -0.550000 15.99940
320 OM 320 OM OM1 320 -0.550000 15.99940
321 OM 321 OM OM1 321 -0.550000 15.99940
322 OM 322 OM OM1 322 -0.550000 15.99940
323 OM 323 OM OM1 323 -0.550000 15.99940
324 OM 324 OM OM1 324 -0.550000 15.99940
325 OM 325 OM OM1 325 -0.550000 15.99940
326 OM 326 OM OM1 326 -0.550000 15.99940
327 OM 327 OM OM1 327 -0.550000 15.99940
328 OM 328 OM OM1 328 -0.550000 15.99940
329 OM 329 OM OM1 329 -0.550000 15.99940
330 OM 330 OM OM1 330 -0.550000 15.99940
331 OM 331 OM OM1 331 -0.550000 15.99940
332 OM 332 OM OM1 332 -0.550000 15.99940
333 OM 333 OM OM1 333 -0.550000 15.99940
334 OM 334 OM OM1 334 -0.550000 15.99940
335 OM 335 OM OM1 335 -0.550000 15.99940
336 OM 336 OM OM1 336 -0.550000 15.99940
337 OM 337 OM OM1 337 -0.550000 15.99940
338 OM 338 OM OM1 338 -0.550000 15.99940
339 OM 339 OM OM1 339 -0.550000 15.99940
340 OM 340 OM OM1 340 -0.550000 15.99940
341 OM 341 OM OM1 341 -0.550000 15.99940
342 OM 342 OM OM1 342 -0.550000 15.99940
343 OM 343 OM OM1 343 -0.550000 15.99940
344 OM 344 OM OM1 344 -0.550000 15.99940
345 OM 345 OM OM1 345 -0.550000 15.99940
346 OM 346 OM OM1 346 -0.550000 15.99940
347 OM 347 OM OM1 347 -0.550000 15.99940
348 OM 348 OM OM1 348 -0.550000 15.99940
349 OM 349 OM OM1 349 -0.550000 15.99940
350 OM 350 OM OM1 350 -0.550000 15.99940
351 OM 351 OM OM1 351 -0.550000 15.99940
352 OM 352 OM OM1 352 -0.550000 15.99940
353 OM 353 OM OM1 353 -0.550000 15.99940
354 OM 354 OM OM1 354 -0.550000 15.99940
355 OM 355 OM OM1 355 -0.550000 15.99940
356 OM 356 OM OM1 356 -0.550000 15.99940
357 OM 357 OM OM1 357 -0.550000 15.99940
358 OM 358 OM OM1 358 -0.550000 15.99940
359 OM 359 OM OM1 359 -0.550000 15.99940
360 OM 360 OM OM1 360 -0.550000 15.99940
361 OM 361 OM OM1 361 -0.550000 15.99940
362 OM 362 OM OM1 362 -0.550000 15.99940
363 OM 363 OM OM1 363 -0.550000 15.99940
364 OM 364 OM OM1 364 -0.550000 15.99940
365 OM 365 OM OM1 365 -0.550000 15.99940
366 OM 366 OM OM1 366 -0.550000 15.99940
367 OM 367 OM OM1 367 -0.550000 15.99940
368 OM 368 OM OM1 368 -0.550000 15.99940
369 OM 369 OM OM1 369 -0.550000 15.99940
370 OM 370 OM OM1 370 -0.550000 15.99940
371 OM 371 OM OM1 371 -0.550000 15.99940
372 OM 372 OM OM1 372 -0.550000 15.99940
373 OM 373 OM OM1 373 -0.550000 15.99940
374 OM 374 OM OM1 374 -0.550000 15.99940
375 OM 375 OM OM1 375 -0.550000 15.99940
376 OM 376 OM OM1 376 -0.550000 15.99940
377 OM 377 OM OM1 377 -0.550000 15.99940
378 OM 378 OM OM1 378 -0.550000 15.99940
379 OM 379 OM OM1 379 -0.550000 15.99940
380 OM 380 OM OM1 380 -0.550000 15.99940
381 OM 381 OM OM1 381 -0.550000 15.99940
382 OM 382 OM OM1 382 -0.550000 15.99940
383 OM 383 OM OM1 383 -0.550000 15.99940
384 OM 384 OM OM1 384 -0.550000 15.99940
385 OM 385 OM OM1 385 -0.550000 15.99940
386 OM 386 OM OM1 386 -0.550000 15.99940
387 OM 387 OM OM1 387 -0.550000 15.99940
388 OM 388 OM OM1 388 -0.550000 15.99940
389 OM 389 OM OM1 389 -0.550000 15.99940
390 OM 390 OM OM1 390 -0.550000 15.99940
391 OM 391 OM OM1 391 -0.550000 15.99940
392 OM 392 OM OM1 392 -0.550000 15.99940
393 OM 393 OM OM1 393 -0.550000 15.99940
394 OM 394 OM OM1 394 -0.550000 15.99940
395 OM 395 OM OM1 395 -0.550000 15.99940
396 OM 396 OM OM1 396 -0.550000 15.99940
397 OM 397 OM OM1 397 -0.550000 15.99940
398 OM 398 OM OM1 398 -0.550000 15.99940
399 OM 399 OM OM1 399 -0.550000 15.99940
400 OM 400 OM OM1 400 -0.550000 15.99940
401 OM 401 OM OM1 401 -0.550000 15.99940
402 OM 402 OM OM1 402 -0.550000 15.99940
403 OM 403 OM OM1 403 -0.550000 15.99940
404 OM 404 OM OM1 404 -0.550000 15.99940
405 OM 405 OM OM1 405 -0.550000 15.99940
406 OM 406 OM OM1 406 -0.550000 15.99940
407 OM 407 OM OM1 407 -0.550000 15.99940
408 OM 408 OM OM1 408 -0.550000 15.99940
409 OM 409 OM OM1 409 -0.550000 15.99940
410 OM 410 OM OM1 410 -0.550000 15.99940
411 OM 411 OM OM1 411 -0.550000 15.99940
412 OM 412 OM OM1 412 -0.550000 15.99940
413 OM 413 OM OM1 413 -0.550000 15.99940
414 OM 414 OM OM1 414 -0.550000 15.99940
415 OM 415 OM OM1 415 -0.550000 15.99940
416 OM 416 OM OM1 416 -0.550000 15.99940
417 OM 417 OM OM1 417 -0.550000 15.99940
418 OM 418 OM OM1 418 -0.550000 15.99940
419 OM 419 OM OM1 419 -0.550000 15.99940
420 OM 420 OM OM1 420 -0.550000 15.99940
421 OM 421 OM OM1 421 -0.550000 15.99940
422 OM 422 OM OM1 422 -0.550000 15.99940
423 OM 423 OM OM1 423 -0.550000 15.99940
424 OM 424 OM OM1 424 -0.550000 15.99940
425 OM 425 OM OM1 425 -0.550000 15.99940
426 OM 426 OM OM1 426 -0.550000 15.99940
427 OM 427 OM OM1 427 -0.550000 15.99940
428 OM 428 OM OM1 428 -0.550000 15.99940
429 OM 429 OM OM1 429 -0.550000 15.99940
430 OM 430 OM OM1 430 -0.550000 15.99940
431 OM 431 OM OM1 431 -0.550000 15.99940
432 OM 432 OM OM1 432 -0.550000 15.99940
433 OM 433 OM OM1 433 -0.550000 15.99940
434 OM 434 OM OM1 434 -0.550000 15.99940
435 OM 435 OM OM1 435 -0.550000 15.99940
436 OM 436 OM OM1 436 -0.550000 15.99940
437 OM 437 OM OM1 437 -0.550000 15.99940
438 OM 438 OM OM1 438 -0.550000 15.99940
439 OM 439 OM OM1 439 -0.550000 15.99940
440 OM 440 OM OM1 440 -0.550000 15.99940
441 OM 441 OM OM1 441 -0.550000 15.99940
442 OM 442 OM OM1 442 -0.550000 15.99940
443 OM 443 OM OM1 443 -0.550000 15.99940
444 OM 444 OM OM1 444 -0.550000 15.99940
445 OM 445 OM OM1 445 -0.550000 15.99940
446 OM 446 OM OM1 446 -0.550000 15.99940
447 OM 447 OM OM1 447 -0.550000 15.99940
448 OM 448 OM OM1 448 -0.550000 15.99940
449 OM 449 OM OM1 449 -0.550000 15.99940
450 OM 450 OM OM1 450 -0.550000 15.99940
451 OM 451 OM OM1 451 -0.550000 15.99940
452 OM 452 OM OM1 452 -0.550000 15.99940
453 OM 453 OM OM1 453 -0.550000 15.99940
454 OM 454 OM OM1 454 -0.550000 15.99940
455 OM 455 OM OM1 455 -0.550000 15.99940
456 OM 456 OM OM1 456 -0.550000 15.99940
457 OM 457 OM OM1 457 -0.550000 15.99940
458 OM 458 OM OM1 458 -0.550000 15.99940
459 OM 459 OM OM1 459 -0.550000 15.99940
460 OM 460 OM OM1 460 -0.550000 15.99940
461 OM 461 OM OM1 461 -0.550000 15.99940
462 OM 462 OM OM1 462 -0.550000 15.99940
463 OM 463 OM OM1 463 -0.550000 15.99940
464 OM 464 OM OM1 464 -0.550000 15.99940
465 OM 465 OM OM1 465 -0.550000 15.99940
466 OM 466 OM OM1 466 -0.550000 15.99940
467 OM 467 OM OM1 467 -0.550000 15.99940
468 OM 468 OM OM1 468 -0.550000 15.99940
469 OM 469 OM OM1 469 -0.550000 15.99940
470 OM 470 OM OM1 470 -0.550000 15.99940
471 OM 471 OM OM1 471 -0.550000 15.99940
472 OM 472 OM OM1 472 -0.550000 15.99940
473 OM 473 OM OM1 473 -0.550000 15.99940
474 OM 474 OM OM1 474 -0.550000 15.99940
475 OM 475 OM OM1 475 -0.550000 15.99940
476 OM 476 OM OM1 476 -0.550000 15.99940
477 OM 477 OM OM1 477 -0.550000 15.99940
478 OM 478 OM OM1 478 -0.550000 15.99940
479 OM 479 OM OM1 479 -0.550000 15.99940
480 OM 480 OM OM1 480 -0.550000 15.99940
481 OM 481 OM OM1 481 -0.550000 15.99940
482 OM 482 OM OM1 482 -0.550000 15.99940
483 OM 483 OM OM1 483 -0.550000 15.99940
484 OM 484 OM OM1 484 -0.550000 15.99940
485 OM 485 OM OM1 485 -0.550000 15.99940
486 OM 486 OM OM1 486 -0.550000 15.99940
487 OM 487 OM OM1 487 -0.550000 15.99940
488 OM 488 OM OM1 488 -0.550000 15.99940
489 OM 489 OM OM1 489 -0.550000 15.99940
490 OM 490 OM OM1 490 -0.550000 15.99940
491 OM 491 OM OM1 491 -0.550000 15.99940
492 OM 492 OM OM1 492 -0.550000 15.99940
493 OM 493 OM OM1 493 -0.550000 15.99940
494 OM 494 OM OM1 494 -0.550000 15.99940
495 OM 495 OM OM1 495 -0.550000 15.99940
496 OM 496 OM OM1 496 -0.550000 15.99940
497 OM 497 OM OM1 497 -0.550000 15.99940
498 OM 498 OM OM1 498 -0.550000 15.99940
499 OM 499 OM OM1 499 -0.550000 15.99940
500 OM 500 OM OM1 500 -0.550000 15.99940
501 OM 501 OM OM1 501 -0.550000 15.99940
502 OM 502 OM OM1 502 -0.550000 15.99940
503 OM 503 OM OM1 503 -0.550000 15.99940
504 OM 504 OM OM1 504 -0.550000 15.99940
505 OM 505 OM OM1 505 -0.550000 15.99940
506 OM 506 OM OM1 506 -0.550000 15.99940
507 OM 507 OM OM1 507 -0.550000 15.99940
508 OM 508 OM OM1 508 -0.550000 15.99940
509 OM 509 OM OM1 509 -0.550000 15.99940
510 OM 510 OM OM1 510 -0.550000 15.99940
511 OM 511 OM OM1 511 -0.550000 15.99940
512 OM 512 OM OM1 512 -0.550000 15.99940
513 OM 513 OM OM1 513 -0.550000 15.99940
514 OM 514 OM OM1 514 -0.550000 15.99940
515 OM 515 OM OM1 515 -0.550000 15.99940
516 OM 516 OM OM1 516 -0.550000 15.99940
517 OM 517 OM OM1 517 -0.550000 15.99940
518 OM 518 OM OM1 518 -0.550000 15.99940
519 OM 519 OM OM1 519 -0.550000 15.99940
520 OM 520 OM OM1 520 -0.550000 15.99940
521 OM 521 OM OM1 521 -0.550000 15.99940
522 OM 522 OM OM1 522 -0.550000 15.99940
523 OM 523 OM OM1 523 -0.550000 15.99940
524 OM 524 OM OM1 524 -0.550000 15.99940
525 OM 525 OM OM1 525 -0.550000 15.99940
526 OM 526 OM OM1 526 -0.550000 15.99940
527 OM 527 OM OM1 527 -0.550000 15.99940
528 OM 528 OM OM1 528 -0.550000 15.99940
529 OM 529 OM OM1 529 -0.550000 15.99940
530 OM 530 OM OM1 530 -0.550000 15.99940
531 OM 531 OM OM1 531 -0.550000 15.99940
532 OM 532 OM OM1 532 -0.550000 15.99940
533 OM 533 OM OM1 533 -0.550000 15.99940
534 OM 534 OM OM1 534 -0.550000 15.99940
535 OM 535 OM OM1 535 -0.550000 15.99940
536 OM 536 OM OM1 536 -0.550000 15.99940
537 OM 537 OM OM1 537 -0.550000 15.99940
538 OM 538 OM OM1 538 -0.550000 15.99940
539 OM 539 OM OM1 539 -0.550000 15.99940
540 OM 540 OM OM1 540 -0.550000 15.99940
541 OM 541 OM OM1 541 -0.550000 15.99940
542 OM 542 OM OM1 542 -0.550000 15.99940
543 OM 543 OM OM1 543 -0.550000 15.99940
544 OM 544 OM OM1 544 -0.550000 15.99940
545 OM 545 OM OM1 545 -0.550000 15.99940
546 OM 546 OM OM1 546 -0.550000 15.99940
547 OM 547 OM OM1 547 -0.550000 15.99940
548 OM 548 OM OM1 548 -0.550000 15.99940
549 OM 549 OM OM1 549 -0.550000 15.99940
550 OM 550 OM OM1 550 -0.550000 15.99940
551 OM 551 OM OM1 551 -0.550000 15.99940
552 OM 552 OM OM1 552 -0.550000 15.99940
553 OM 553 OM OM1 553 -0.550000 15.99940
554 OM 554 OM OM1 554 -0.550000 15.99940
555 OM 555 OM OM1 555 -0.550000 15.99940
556 OM 556 OM OM1 556 -0.550000 15.99940
557 OM 557 OM OM1 557 -0.550000 15.99940
558 OM 558 OM OM1 558 -0.550000 15.99940
559 OM 559 OM OM1 559 -0.550000 15.99940
560 OM 560 OM OM1 560 -0.550000 15.99940
561 OM 561 OM OM1 561 -0.550000 15.99940
562 OM 562 OM OM1 562 -0.550000 15.99940
563 OM 563 OM OM1 563 -0.550000 15.99940
564 OM 564 OM OM1 564 -0.550000 15.99940
565 OM 565 OM OM1 565 -0.550000 15.99940
566 OM 566 OM OM1 566 -0.550000 15.99940
567 OM 567 OM OM1 567 -0.550000 15.99940
568 OM 568 OM OM1 568 -0.550000 15.99940
569 OM 569 OM OM1 569 -0.550000 15.99940
570 OM 570 OM OM1 570 -0.550000 15.99940
571 OM 571 OM OM1 571 -0.550000 15.99940
572 OM 572 OM OM1 572 -0.550000 15.99940
573 OM 573 OM OM1 573 -0.550000 15.99940
574 OM 574 OM OM1 574 -0.550000 15.99940
575 OM 575 OM OM1 575 -0.550000 15.99940
576 OM 576 OM OM1 576 -0.550000 15.99940
577 OM 577 OM OM1 577 -0.550000 15.99940
578 OM 578 OM OM1 578 -0.550000 15.99940
579 OM 579 OM OM1 579 -0.550000 15.99940
580 OM 580 OM OM1 580 -0.550000 15.99940
581 OM 581 OM OM1 581 -0.550000 15.99940
582 OM 582 OM OM1 582 -0.550000 15.99940
583 OM 583 OM OM1 583 -0.550000 15.99940
584 OM 584 OM OM1 584 -0.550000 15.99940
585 OM 585 OM OM1 585 -0.550000 15.99940
586 OM 586 OM OM1 586 -0.550000 15.99940
587 OM 587 OM OM1 587 -0.550000 15.99940
588 OM 588 OM OM1 588 -0.550000 15.99940
589 OM 589 OM OM1 589 -0.550000 15.99940
590 OM 590 OM OM1 590 -0.550000 15.99940
591 OM 591 OM OM1 591 -0.550000 15.99940
592 OM 592 OM OM1 592 -0.550000 15.99940
593 OM 593 OM OM1 593 -0.550000 15.99940
594 OM 594 OM OM1 594 -0.550000 15.99940
595 OM 595 OM OM1 595 -0.550000 15.99940
596 OM 596 OM OM1 596 -0.550000 15.99940
597 OM 597 OM OM1 597 -0.550000 15.99940
598 OM 598 OM OM1 598 -0.550000 15.99940
599 OM 599 OM OM1 599 -0.550000 15.99940
600 OM 600 OM OM1 600 -0.550000 15.99940
601 OM 601 OM OM1 601 -0.550000 15.99940
602 OM 602 OM OM1 602 -0.550000 15.99940
603 OM 603 OM OM1 603 -0.550000 15.99940
604 OM 604 OM OM1 604 -0.550000 15.99940
605 OM 605 OM OM1 605 -0.550000 15.99940
606 OM 606 OM OM1 606 -0.550000 15.99940
607 OM 607 OM OM1 607 -0.550000 15.99940
608 OM 608 OM OM1 608 -0.550000 15.99940
609 OM 609 OM OM1 609 -0.550000 15.99940
610 OM 610 OM OM1 610 -0.550000 15.99940
611 OM 611 OM OM1 611 -0.550000 15.99940
612 OM 612 OM OM1 612 -0.550000 15.99940
613 OM 613 OM OM1 613 -0.550000 15.99940
614 OM 614 OM OM1 614 -0.550000 15.99940
615 OM 615 OM OM1 615 -0.550000 15.99940
616 OM 616 OM OM1 616 -0.550000 15.99940
617 OM 617 OM OM1 617 -0.550000 15.99940
618 OM 618 OM OM1 618 -0.550000 15.99940
619 OM 619 OM OM1 619 -0.550000 15.99940
620 OM 620 OM OM1 620 -0.550000 15.99940
621 OM 621 OM OM1 621 -0.550000 15.99940
622 OM 622 OM OM1 622 -0.550000 15.99940
623 OM 623 OM OM1 623 -0.550000 15.99940
624 OM 624 OM OM1 624 -0.550000 15.99940
625 OM 625 OM OM1 625 -0.550000 15.99940
626 OM 626 OM OM1 626 -0.550000 15.99940
627 OM 627 OM OM1 627 -0.550000 15.99940
628 OM 628 OM OM1 628 -0.550000 15.99940
629 OM 629 OM OM1 629 -0.550000 15.99940
630 OM 630 OM OM1 630 -0.550000 15.99940
631 OM 631 OM OM1 631 -0.550000 15.99940
632 OM 632 OM OM1 632 -0.550000 15.99940
633 OM 633 OM OM1 633 -0.550000 15.99940
634 OM 634 OM OM1 634 -0.550000 15.99940
635 OM 635 OM OM1 635 -0.550000 15.99940
636 OM 636 OM OM1 636 -0.550000 15.99940
637 OM 637 OM OM1 637 -0.550000 15.99940
638 OM 638 OM OM1 638 -0.550000 15.99940
639 OM 639 OM OM1 639 -0.550000 15.99940
640 OM 640 OM OM1 640 -0.550000 15.99940
641 OM 641 OM OM1 641 -0.550000 15.99940
642 OM 642 OM OM1 642 -0.550000 15.99940
643 OM 643 OM OM1 643 -0.550000 15.99940
644 OM 644 OM OM1 644 -0.550000 15.99940
645 OM 645 OM OM1 645 -0.550000 15.99940
646 OM 646 OM OM1 646 -0.550000 15.99940
647 OM 647 OM OM1 647 -0.550000 15.99940
648 OM 648 OM OM1 648 -0.550000 15.99940
649 OM 649 OM OM1 649 -0.550000 15.99940
650 OM 650 OM OM1 650 -0.550000 15.99940
651 OM 651 OM OM1 651 -0.550000 15.99940
652 OM 652 OM OM1 652 -0.550000 15.99940
653 OM 653 OM OM1 653 -0.550000 15.99940
654 OM 654 OM OM1 654 -0.550000 15.99940
655 OM 655 OM OM1 655 -0.550000 15.99940
656 OM 656 OM OM1 656 -0.550000 15.99940
657 OM 657 OM OM1 657 -0.550000 15.99940
658 OM 658 OM OM1 658 -0.550000 15.99940
659 OM 659 OM OM1 659 -0.550000 15.99940
660 OM 660 OM OM1 660 -0.550000 15.99940
661 OM 661 OM OM1 661 -0.550000 15.99940
662 OM 662 OM OM1 662 -0.550000 15.99940
663 OM 663 OM OM1 663 -0.550000 15.99940
664 OM 664 OM OM1 664 -0.550000 15.99940
665 OM 665 OM OM1 665 -0.550000 15.99940
666 OM 666 OM OM1 666 -0.550000 15.99940
667 OM 667 OM OM1 667 -0.550000 15.99940
668 OM 668 OM OM1 668 -0.550000 15.99940
669 OM 669 OM OM1 669 -0.550000 15.99940
670 OM 670 OM OM1 670 -0.550000 15.99940
671 OM 671 OM OM1 671 -0.550000 15.99940
672 OM 672 OM OM1 672 -0.550000 15.99940
673 OM 673 OM OM1 673 -0.550000 15.99940
674 OM 674 OM OM1 674 -0.550000 15.99940
675 OM 675 OM OM1 675 -0.550000 15.99940
676 OM 676 OM OM1 676 -0.550000 15.99940
677 OM 677 OM OM1 677 -0.550000 15.99940
678 OM 678 OM OM1 678 -0.550000 15.99940
679 OM 679 OM OM1 679 -0.550000 15.99940
680 OM 680 OM OM1 680 -0.550000 15.99940
681 OM 681 OM OM1 681 -0.550000 15.99940
682 OM 682 OM OM1 682 -0.550000 15.99940
683 OM 683 OM OM1 683 -0.550000 15.99940
684 OM 684 OM OM1 684 -0.550000 15.99940
685 OM 685 OM OM1 685 -0.550000 15.99940
686 OM 686 OM OM1 686 -0.550000 15.99940
687 OM 687 OM OM1 687 -0.550000 15.99940
688 OM 688 OM OM1 688 -0.550000 15.99940
689 OM 689 OM OM1 689 -0.550000 15.99940
690 OM 690 OM OM1 690 -0.550000 15.99940
691 OM 691 OM OM1 691 -0.550000 15.99940
692 OM 692 OM OM1 692 -0.550000 15.99940
693 OM 693 OM OM1 693 -0.550000 15.99940
694 OM 694 OM OM1 694 -0.550000 15.99940
695 OM 695 OM OM1 695 -0.550000 15.99940
696 OM 696 OM OM1 696 -0.550000 15.99940
697 OM 697 OM OM1 697 -0.550000 15.99940
698 OM 698 OM OM1 698 -0.550000 15.99940
699 OM 699 OM OM1 699 -0.550000 15.99940
700 OM 700 OM OM1 700 -0.550000 15.99940
701 OM 701 OM OM1 701 -0.550000 15.99940
702 OM 702 OM OM1 702 -0.550000 15.99940
703 OM 703 OM OM1 703 -0.550000 15.99940
704 OM 704 OM OM1 704 -0.550000 15.99940
705 OM 705 OM OM1 705 -0.550000 15.99940
706 OM 706 OM OM1 706 -0.550000 15.99940
707 OM 707 OM OM1 707 -0.550000 15.99940
708 OM 708 OM OM1 708 -0.550000 15.99940
709 OM 709 OM OM1 709 -0.550000 15.99940
710 OM 710 OM OM1 710 -0.550000 15.99940
711 OM 711 OM OM1 711 -0.550000 15.99940
712 OM 712 OM OM1 712 -0.550000 15.99940
713 OM 713 OM OM1 713 -0.550000 15.99940
714 OM 714 OM OM1 714 -0.550000 15.99940
715 OM 715 OM OM1 715 -0.550000 15.99940
716 OM 716 OM OM1 716 -0.550000 15.99940
717 OM 717 OM OM1 717 -0.550000 15.99940
718 OM 718 OM OM1 718 -0.550000 15.99940
719 OM 719 OM OM1 719 -0.550000 15.99940
720 OM 720 OM OM1 720 -0.550000 15.99940
721 OM 721 OM OM1 721 -0.550000 15.99940
722 OM 722 OM OM1 722 -0.550000 15.99940
723 OM 723 OM OM1 723 -0.550000 15.99940
724 OM 724 OM OM1 724 -0.550000 15.99940
725 OM 725 OM OM1 725 -0.550000 15.99940
726 OM 726 OM OM1 726 -0.550000 15.99940
727 OM 727 OM OM1 727 -0.550000 15.99940
728 OM 728 OM OM1 728 -0.550000 15.99940
729 OM 729 OM OM1 729 -0.550000 15.99940
730 OM 730 OM OM1 730 -0.550000 15.99940
731 OM 731 OM OM1 731 -0.550000 15.99940
732 OM 732 OM OM1 732 -0.550000 15.99940
733 OM 733 OM OM1 733 -0.550000 15.99940
734 OM 734 OM OM1 734 -0.550000 15.99940
735 OM 735 OM OM1 735 -0.550000 15.99940
736 OM 736 OM OM1 736 -0.550000 15.99940
737 OM 737 OM OM1 737 -0.550000 15.99940
738 OM 738 OM OM1 738 -0.550000 15.99940
739 OM 739 OM OM1 739 -0.550000 15.99940
740 OM 740 OM OM1 740 -0.550000 15.99940
741 OM 741 OM OM1 741 -0.550000 15.99940
742 OM 742 OM OM1 742 -0.550000 15.99940
743 OM 743 OM OM1 743 -0.550000 15.99940
744 OM 744 OM OM1 744 -0.550000 15.99940
745 OM 745 OM OM1 745 -0.550000 15.99940
746 OM 746 OM OM1 746 -0.550000 15.99940
747 OM 747 OM OM1 747 -0.550000 15.99940
748 OM 748 OM OM1 748 -0.550000 15.99940
749 OM 749 OM OM1 749 -0.550000 15.99940
750 OM 750 OM OM1 750 -0.550000 15.99940
751 OM 751 OM OM1 751 -0.550000 15.99940
752 OM 752 OM OM1 752 -0.550000 15.99940
753 OM 753 OM OM1 753 -0.550000 15.99940
754 OM 754 OM OM1 754 -0.550000 15.99940
755 OM 755 OM OM1 755 -0.550000 15.99940
756 OM 756 OM OM1 756 -0.550000 15.99940
757 OM 757 OM OM1 757 -0.550000 15.99940
758 OM 758 OM OM1 758 -0.550000 15.99940
759 OM 759 OM OM1 759 -0.550000 15.99940
760 OM 760 OM OM1 760 -0.550000 15.99940
761 OM 761 OM OM1 761 -0.550000 15.99940
762 OM 762 OM OM1 762 -0.550000 15.99940
763 OM 763 OM OM1 763 -0.550000 15.99940
764 OM 764 OM OM1 764 -0.550000 15.99940
765 OM 765 OM OM1 765 -0.550000 15.99940
766 OM 766 OM OM1 766 -0.550000 15.99940
767 OM 767 OM OM1 767 -0.550000 15.99940
768 OM 768 OM OM1 768 -0.550000 15.99940
769 OM 769 OM OM1 769 -0.550000 15.99940
770 OM 770 OM OM1 770 -0.550000 15.99940
771 OM 771 OM OM1 771 -0.550000 15.99940
772 OM 772 OM OM1 772 -0.550000 15.99940
773 OM 773 OM OM1 773 -0.550000 15.99940
774 OM 774 OM OM1 774 -0.550000 15.99940
775 OM 775 OM OM1 775 -0.550000 15.99940
776 OM 776 OM OM1 776 -0.550000 15.99940
777 OM 777 OM OM1 777 -0.550000 15.99940
778 OM 778 OM OM1 778 -0.550000 15.99940
779 OM 779 OM OM1 779 -0.550000 15.99940
780 OM 780 OM OM1 780 -0.550000 15.99940
781 OM 781 OM OM1 781 -0.550000 15.99940
782 OM 782 OM OM1 782 -0.550000 15.99940
783 OM 783 OM OM1 783 -0.550000 15.99940
784 OM 784 OM OM1 784 -0.550000 15.99940
785 OM 785 OM OM1 785 -0.550000 15.99940
786 OM 786 OM OM1 786 -0.550000 15.99940
787 OM 787 OM OM1 787 -0.550000 15.99940
788 OM 788 OM OM1 788 -0.550000 15.99940
789 OM 789 OM OM1 789 -0.550000 15.99940
790 OM 790 OM OM1 790 -0.550000 15.99940
791 OM 791 OM OM1 791 -0.550000 15.99940
792 OM 792 OM OM1 792 -0.550000 15.99940
793 OM 793 OM OM1 793 -0.550000 15.99940
794 OM 794 OM OM1 794 -0.550000 15.99940
795 OM 795 OM OM1 795 -0.550000 15.99940
796 OM 796 OM OM1 796 -0.550000 15.99940
797 OM 797 OM OM1 797 -0.550000 15.99940
798 OM 798 OM OM1 798 -0.550000 15.99940
799 OM 799 OM OM1 799 -0.550000 15.99940
800 OM 800 OM OM1 800 -0.550000 15.99940
801 OM 801 OM OM1 801 -0.550000 15.99940
802 OM 802 OM OM1 802 -0.550000 15.99940
803 OM 803 OM OM1 803 -0.550000 15.99940
804 OM 804 OM OM1 804 -0.550000 15.99940
805 OM 805 OM OM1 805 -0.550000 15.99940
806 OM 806 OM OM1 806 -0.550000 15.99940
807 OM 807 OM OM1 807 -0.550000 15.99940
808 OM 808 OM OM1 808 -0.550000 15.99940
809 OM 809 OM OM1 809 -0.550000 15.99940
810 OM 810 OM OM1 810 -0.550000 15.99940
811 OM 811 OM OM1 811 -0.550000 15.99940
812 OM 812 OM OM1 812 -0.550000 15.99940
813 OM 813 OM OM1 813 -0.550000 15.99940
814 OM 814 OM OM1 814 -0.550000 15.99940
815 OM 815 OM OM1 815 -0.550000 15.99940
816 OM 816 OM OM1 816 -0.550000 15.99940
817 OM 817 OM OM1 817 -0.550000 15.99940
818 OM 818 OM OM1 818 -0.550000 15.99940
819 OM 819 OM OM1 819 -0.550000 15.99940
820 OM 820 OM OM1 820 -0.550000 15.99940
821 OM 821 OM OM1 821 -0.550000 15.99940
822 OM 822 OM OM1 822 -0.550000 15.99940
823 OM 823 OM OM1 823 -0.550000 15.99940
824 OM 824 OM OM1 824 -0.550000 15.99940
825 OM 825 OM OM1 825 -0.550000 15.99940
826 OM 826 OM OM1 826 -0.550000 15.99940
827 OM 827 OM OM1 827 -0.550000 15.99940
828 OM 828 OM OM1 828 -0.550000 15.99940
829 OM 829 OM OM1 829 -0.550000 15.99940
830 OM 830 OM OM1 830 -0.550000 15.99940
831 OM 831 OM OM1 831 -0.550000 15.99940
832 OM 832 OM OM1 832 -0.550000 15.99940
833 OM 833 OM OM1 833 -0.550000 15.99940
834 OM 834 OM OM1 834 -0.550000 15.99940
835 OM 835 OM OM1 835 -0.550000 15.99940
836 OM 836 OM OM1 836 -0.550000 15.99940
837 OM 837 OM OM1 837 -0.550000 15.99940
838 OM 838 OM OM1 838 -0.550000 15.99940
839 OM 839 OM OM1 839 -0.550000 15.99940
840 OM 840 OM OM1 840 -0.550000 15.99940
841 OM 841 OM OM1 841 -0.550000 15.99940
842 OM 842 OM OM1 842 -0.550000 15.99940
843 OM 843 OM OM1 843 -0.550000 15.99940
844 OM 844 OM OM1 844 -0.550000 15.99940
845 OM 845 OM OM1 845 -0.550000 15.99940
846 OM 846 OM OM1 846 -0.550000 15.99940
847 OM 847 OM OM1 847 -0.550000 15.99940
848 OM 848 OM OM1 848 -0.550000 15.99940
849 OM 849 OM OM1 849 -0.550000 15.99940
850 OM 850 OM OM1 850 -0.550000 15.99940
851 OM 851 OM OM1 851 -0.550000 15.99940
852 OM 852 OM OM1 852 -0.550000 15.99940
853 OM 853 OM OM1 853 -0.550000 15.99940
854 OM 854 OM OM1 854 -0.550000 15.99940
855 OM 855 OM OM1 855 -0.550000 15.99940
856 OM 856 OM OM1 856 -0.550000 15.99940
857 OM 857 OM OM1 857 -0.550000 15.99940
858 OM 858 OM OM1 858 -0.550000 15.99940
859 OM 859 OM OM1 859 -0.550000 15.99940
860 OM 860 OM OM1 860 -0.550000 15.99940
861 OM 861 OM OM1 861 -0.550000 15.99940
862 OM 862 OM OM1 862 -0.550000 15.99940
863 OM 863 OM OM1 863 -0.550000 15.99940
864 OM 864 OM OM1 864 -0.550000 15.99940
865 OM 865 OM OM1 865 -0.550000 15.99940
866 OM 866 OM OM1 866 -0.550000 15.99940
867 OM 867 OM OM1 867 -0.550000 15.99940
868 OM 868 OM OM1 868 -0.550000 15.99940
869 OM 869 OM OM1 869 -0.550000 15.99940
870 OM 870 OM OM1 870 -0.550000 15.99940
871 OM 871 OM OM1 871 -0.550000 15.99940
872 OM 872 OM OM1 872 -0.550000 15.99940
873 OM 873 OM OM1 873 -0.550000 15.99940
874 OM 874 OM OM1 874 -0.550000 15.99940
875 OM 875 OM OM1 875 -0.550000 15.99940
876 OM 876 OM OM1 876 -0.550000 15.99940
877 OM 877 OM OM1 877 -0.550000 15.99940
878 OM 878 OM OM1 878 -0.550000 15.99940
879 OM 879 OM OM1 879 -0.550000 15.99940
880 OM 880 OM OM1 880 -0.550000 15.99940
881 OM 881 OM OM1 881 -0.550000 15.99940
882 OM 882 OM OM1 882 -0.550000 15.99940
883 OM 883 OM OM1 883 -0.550000 15.99940
884 OM 884 OM OM1 884 -0.550000 15.99940
885 OM 885 OM OM1 885 -0.550000 15.99940
886 OM 886 OM OM1 886 -0.550000 15.99940
887 OM 887 OM OM1 887 -0.550000 15.99940
888 OM 888 OM OM1 888 -0.550000 15.99940
889 OM 889 OM OM1 889 -0.550000 15.99940
890 OM 890 OM OM1 890 -0.550000 15.99940
891 OM 891 OM OM1 891 -0.550000 15.99940
892 OM 892 OM OM1 892 -0.550000 15.99940
893 OM 893 OM OM1 893 -0.550000 15.99940
894 OM 894 OM OM1 894 -0.550000 15.99940
895 OM 895 OM OM1 895 -0.550000 15.99940
896 OM 896 OM OM1 896 -0.550000 15.99940
897 OM 897 OM OM1 897 -0.550000 15.99940
898 OM 898 OM OM1 898 -0.550000 15.99940
899 OM 899 OM OM1 899 -0.550000 15.99940
900 OM 900 OM OM1 900 -0.550000 15.99940
901 OM 901 OM OM1 901 -0.550000 15.99940
902 OM 902 OM OM1 902 -0.550000 15.99940
903 OM 903 OM OM1 903 -0.550000 15.99940
904 OM 904 OM OM1 904 -0.550000 15.99940
905 OM 905 OM OM1 905 -0.550000 15.99940
906 OM 906 OM OM1 906 -0.550000 15.99940
907 OM 907 OM OM1 907 -0.550000 15.99940
908 OM 908 OM OM1 908 -0.550000 15.99940
909 OM 909 OM OM1 909 -0.550000 15.99940
910 OM 910 OM OM1 910 -0.550000 15.99940
911 OM 911 OM OM1 911 -0.550000 15.99940
912 OM 912 OM OM1 912 -0.550000 15.99940
913 OM 913 OM OM1 913 -0.550000 15.99940
914 OM 914 OM OM1 914 -0.550000 15.99940
915 OM 915 OM OM1 915 -0.550000 15.99940
916 OM 916 OM OM1 916 -0.550000 15.99940
917 OM 917 OM OM1 917 -0.550000 15.99940
918 OM 918 OM OM1 918 -0.550000 15.99940
919 OM 919 OM OM1 919 -0.550000 15.99940
920 OM 920 OM OM1 920 -0.550000 15.99940
921 OM 921 OM OM1 921 -0.550000 15.99940
922 OM 922 OM OM1 922 -0.550000 15.99940
923 OM 923 OM OM1 923 -0.550000 15.99940
924 OM 924 OM OM1 924 -0.550000 15.99940
925 OM 925 OM OM1 925 -0.550000 15.99940
926 OM 926 OM OM1 926 -0.550000 15.99940
927 OM 927 OM OM1 927 -0.550000 15.99940
928 OM 928 OM OM1 928 -0.550000 15.99940
929 OM 929 OM OM1 929 -0.550000 15.99940
930 OM 930 OM OM1 930 -0.550000 15.99940
931 OM 931 OM OM1 931 -0.550000 15.99940
932 OM 932 OM OM1 932 -0.550000 15.99940
933 OM 933 OM OM1 933 -0.550000 15.99940
934 OM 934 OM OM1 934 -0.550000 15.99940
935 OM 935 OM OM1 935 -0.550000 15.99940
936 OM 936 OM OM1 936 -0.550000 15.99940
937 OM 937 OM OM1 937 -0.550000 15.99940
938 OM 938 OM OM1 938 -0.550000 15.99940
939 OM 939 OM OM1 939 -0.550000 15.99940
940 OM 940 OM OM1 940 -0.550000 15.99940
941 OM 941 OM OM1 941 -0.550000 15.99940
942 OM 942 OM OM1 942 -0.550000 15.99940
943 OM 943 OM OM1 943 -0.550000 15.99940
944 OM 944 OM OM1 944 -0.550000 15.99940
945 OM 945 OM OM1 945 -0.550000 15.99940
946 OM 946 OM OM1 946 -0.550000 15.99940
947 OM 947 OM OM1 947 -0.550000 15.99940
948 OM 948 OM OM1 948 -0.550000 15.99940
949 OM 949 OM OM1 949 -0.550000 15.99940
950 OM 950 OM OM1 950 -0.550000 15.99940
951 OM 951 OM OM1 951 -0.550000 15.99940
952 OM 952 OM OM1 952 -0.550000 15.99940
953 OM 953 OM OM1 953 -0.550000 15.99940
954 OM 954 OM OM1 954 -0.550000 15.99940
955 OM 955 OM OM1 955 -0.550000 15.99940
956 OM 956 OM OM1 956 -0.550000 15.99940
957 OM 957 OM OM1 957 -0.550000 15.99940
958 OM 958 OM OM1 958 -0.550000 15.99940
959 OM 959 OM OM1 959 -0.550000 15.99940
960 OM 960 OM OM1 960 -0.550000 15.99940
961 OM 961 OM OM1 961 -0.550000 15.99940
962 OM 962 OM OM1 962 -0.550000 15.99940
963 OM 963 OM OM1 963 -0.550000 15.99940
964 OM 964 OM OM1 964 -0.550000 15.99940
965 OM 965 OM OM1 965 -0.550000 15.99940
966 OM 966 OM OM1 966 -0.550000 15.99940
967 OM 967 OM OM1 967 -0.550000 15.99940
968 OM 968 OM OM1 968 -0.550000 15.99940
969 OM 969 OM OM1 969 -0.550000 15.99940
970 OM 970 OM OM1 970 -0.550000 15.99940
971 OM 971 OM OM1 971 -0.550000 15.99940
972 OM 972 OM OM1 972 -0.550000 15.99940
973 OM 973 OM OM1 973 -0.550000 15.99940
974 OM 974 OM OM1 974 -0.550000 15.99940
975 OM 975 OM OM1 975 -0.550000 15.99940
976 OM 976 OM OM1 976 -0.550000 15.99940
977 OM 977 OM OM1 977 -0.550000 15.99940
978 OM 978 OM OM1 978 -0.550000 15.99940
979 OM 979 OM OM1 979 -0.550000 15.99940
980 OM 980 OM OM1 980 -0.550000 15.99940
981 OM 981 OM OM1 981 -0.550000 15.99940
982 OM 982 OM OM1 982 -0.550000 15.99940
983 OM 983 OM OM1 983 -0.550000 15.99940
984 OM 984 OM OM1 984 -0.550000 15.99940
985 OM 985 OM OM1 985 -0.550000 15.99940
986 OM 986 OM OM1 986 -0.550000 15.99940
987 OM 987 OM OM1 987 -0.550000 15.99940
988 OM 988 OM OM1 988 -0.550000 15.99940
989 OM 989 OM OM1 989 -0.550000 15.99940
990 OM 990 OM OM1 990 -0.550000 15.99940
991 OM 991 OM OM1 991 -0.550000 15.99940
992 OM 992 OM OM1 992 -0.550000 15.99940
993 OM 993 OM OM1 993 -0.550000 15.99940
994 OM 994 OM OM1 994 -0.550000 15.99940
995 OM 995 OM OM1 995 -0.550000 15.99940
996 OM 996 OM OM1 996 -0.550000 15.99940
997 OM 997 OM OM1 997 -0.550000 15.99940
998 OM 998 OM OM1 998 -0.550000 15.99940
999 OM 999 OM OM1 999 -0.550000 15.99940
1000 OM 1000 OM OM1 1000 -0.550000 15.99940
1001 OM 1001 OM OM1 1001 -0.550000 15.99940
1002 OM 1002 OM OM1 1002 -0.550000 15.99940
1003 OM 1003 OM OM1 1003 -0.550000 15.99940
1004 OM 1004 OM OM1 1004 -0.550000 15.99940
1005 OM 1005 OM OM1 1005 -0.550000 15.99940
1006 OM 1006 OM OM1 1006 -0.550000 15.99940
1007 OM 1007 OM OM1 1007 -0.550000 15.99940
1008 OM 1008 OM OM1 1008 -0.550000 15.99940
1009 OM 1009 OM OM1 1009 -0.550000 15.99940
1010 OM 1010 OM OM1 1010 -0.550000 15.99940
1011 OM 1011 OM OM1 1011 -0.550000 15.99940
1012 OM 1012 OM OM1 1012 -0.550000 15.99940
1013 OM 1013 OM OM1 1013 -0.550000 15.99940
1014 OM 1014 OM OM1 1014 -0.550000 15.99940
1015 OM 1015 OM OM1 1015 -0.550000 15.99940
1016 OM 1016 OM OM1 1016 -0.550000 15.99940
1017 OM 1017 OM OM1 1017 -0.550000 15.99940
1018 OM 1018 OM OM1 1018 -0.550000 15.99940
1019 OM 1019 OM OM1 1019 -0.550000 15.99940
1020 OM 1020 OM OM1 1020 -0.550000 15.99940
1021 OM 1021 OM OM1 1021 -0.550000 15.99940
1022 OM 1022 OM OM1 1022 -0.550000 15.99940
1023 OM 1023 OM OM1 1023 -0.550000 15.99940
1024 OM 1024 OM OM1 1024 -0.550000 15.99940
1025 OM 1025 OM OM1 1025 -0.550000 15.99940
1026 OM 1026 OM OM1 1026 -0.550000 15.99940
1027 OM 1027 OM OM1 1027 -0.550000 15.99940
1028 OM 1028 OM OM1 1028 -0.550000 15.99940
1029 OM 1029 OM OM1 1029 -0.550000 15.99940
1030 OM 1030 OM OM1 1030 -0.550000 15.99940
1031 OM 1031 OM OM1 1031 -0.550000 15.99940
1032 OM 1032 OM OM1 1032 -0.550000 15.99940
1033 OM 1033 OM OM1 1033 -0.550000 15.99940
1034 OM 1034 OM OM1 1034 -0.550000 15.99940
1035 OM 1035 OM OM1 1035 -0.550000 15.99940
1036 OM 1036 OM OM1 1036 -0.550000 15.99940
1037 OM 1037 OM OM1 1037 -0.550000 15.99940
1038 OM 1038 OM OM1 1038 -0.550000 15.99940
1039 OM 1039 OM OM1 1039 -0.550000 15.99940
1040 OM 1040 OM OM1 1040 -0.550000 15.99940
1041 OM 1041 OM OM1 1041 -0.550000 15.99940
1042 OM 1042 OM OM1 1042 -0.550000 15.99940
1043 OM 1043 OM OM1 1043 -0.550000 15.99940
1044 OM 1044 OM OM1 1044 -0.550000 15.99940
1045 OM 1045 OM OM1 1045 -0.550000 15.99940
1046 OM 1046 OM OM1 1046 -0.550000 15.99940
1047 OM 1047 OM OM1 1047 -0.550000 15.99940
1048 OM 1048 OM OM1 1048 -0.550000 15.99940
1049 OM 1049 OM OM1 1049 -0.550000 15.99940
1050 OM 1050 OM OM1 1050 -0.550000 15.99940
1051 OM 1051 OM OM1 1051 -0.550000 15.99940
1052 OM 1052 OM OM1 1052 -0.550000 15.99940
1053 OM 1053 OM OM1 1053 -0.550000 15.99940
1054 OM 1054 OM OM1 1054 -0.550000 15.99940
1055 OM 1055 OM OM1 1055 -0.550000 15.99940
1056 OM 1056 OM OM1 1056 -0.550000 15.99940
1057 OM 1057 OM OM1 1057 -0.550000 15.99940
1058 OM 1058 OM OM1 1058 -0.550000 15.99940
1059 OM 1059 OM OM1 1059 -0.550000 15.99940
1060 OM 1060 OM OM1 1060 -0.550000 15.99940
1061 OM 1061 OM OM1 1061 -0.550000 15.99940
1062 OM 1062 OM OM1 1062 -0.550000 15.99940
1063 OM 1063 OM OM1 1063 -0.550000 15.99940
1064 OM 1064 OM OM1 1064 -0.550000 15.99940
1065 OM 1065 OM OM1 1065 -0.550000 15.99940
1066 OM 1066 OM OM1 1066 -0.550000 15.99940
1067 OM 1067 OM OM1 1067 -0.550000 15.99940
1068 OM 1068 OM OM1 1068 -0.550000 15.99940
1069 OM 1069 OM OM1 1069 -0.550000 15.99940
1070 OM 1070 OM OM1 1070 -0.550000 15.99940
1071 OM 1071 OM OM1 1071 -0.550000 15.99940
1072 OM 1072 OM OM1 1072 -0.550000 15.99940
1073 OM 1073 OM OM1 1073 -0.550000 15.99940
1074 OM 1074 OM OM1 1074 -0.550000 15.99940
1075 OM 1075 OM OM1 1075 -0.550000 15.99940
1076 OM 1076 OM OM1 1076 -0.550000 15.99940
1077 OM 1077 OM OM1 1077 -0.550000 15.99940
1078 OM 1078 OM OM1 1078 -0.550000 15.99940
1079 OM 1079 OM OM1 1079 -0.550000 15.99940
1080 OM 1080 OM OM1 1080 -0.550000 15.99940
1081 OM 1081 OM OM1 1081 -0.550000 15.99940
1082 OM 1082 OM OM1 1082 -0.550000 15.99940
1083 OM 1083 OM OM1 1083 -0.550000 15.99940
1084 OM 1084 OM OM1 1084 -0.550000 15.99940
1085 OM 1085 OM OM1 1085 -0.550000 15.99940
1086 OM 1086 OM OM1 1086 -0.550000 15.99940
1087 OM 1087 OM OM1 1087 -0.550000 15.99940
1088 OM 1088 OM OM1 1088 -0.550000 15.99940
1089 OM 1089 OM OM1 1089 -0.550000 15.99940
1090 OM 1090 OM OM1 1090 -0.550000 15.99940
1091 OM 1091 OM OM1 1091 -0.550000 15.99940
1092 OM 1092 OM OM1 1092 -0.550000 15.99940
1093 OM 1093 OM OM1 1093 -0.550000 15.99940
1094 OM 1094 OM OM1 1094 -0.550000 15.99940
1095 OM 1095 OM OM1 1095 -0.550000 15.99940
1096 OM 1096 OM OM1 1096 -0.550000 15.99940
1097 OM 1097 OM OM1 1097 -0.550000 15.99940
1098 OM 1098 OM OM1 1098 -0.550000 15.99940
1099 OM 1099 OM OM1 1099 -0.550000 15.99940
1100 OM 1100 OM OM1 1100 -0.550000 15.99940
1101 OM 1101 OM OM1 1101 -0.550000 15.99940
1102 OM 1102 OM OM1 1102 -0.550000 15.99940
1103 OM 1103 OM OM1 1103 -0.550000 15.99940
1104 OM 1104 OM OM1 1104 -0.550000 15.99940
1105 OM 1105 OM OM1 1105 -0.550000 15.99940
1106 OM 1106 OM OM1 1106 -0.550000 15.99940
1107 OM 1107 OM OM1 1107 -0.550000 15.99940
1108 OM 1108 OM OM1 1108 -0.550000 15.99940
1109 OM 1109 OM OM1 1109 -0.550000 15.99940
1110 OM 1110 OM OM1 1110 -0.550000 15.99940
1111 OM 1111 OM OM1 1111 -0.550000 15.99940
1112 OM 1112 OM OM1 1112 -0.550000 15.99940
1113 OM 1113 OM OM1 1113 -0.550000 15.99940
1114 OM 1114 OM OM1 1114 -0.550000 15.99940
1115 OM 1115 OM OM1 1115 -0.550000 15.99940
1116 OM 1116 OM OM1 1116 -0.550000 15.99940
1117 OM 1117 OM OM1 1117 -0.550000 15.99940
1118 OM 1118 OM OM1 1118 -0.550000 15.99940
1119 OM 1119 OM OM1 1119 -0.550000 15.99940
1120 OM 1120 OM OM1 1120 -0.550000 15.99940
1121 OM 1121 OM OM1 1121 -0.550000 15.99940
1122 OM 1122 OM OM1 1122 -0.550000 15.99940
1123 OM 1123 OM OM1 1123 -0.550000 15.99940
1124 OM 1124 OM OM1 1124 -0.550000 15.99940
1125 OM 1125 OM OM1 1125 -0.550000 15.99940
1126 OM 1126 OM OM1 1126 -0.550000 15.99940
1127 OM 1127 OM OM1 1127 -0.550000 15.99940
1128 OM 1128 OM OM1 1128 -0.550000 15.99940
1129 OM 1129 OM OM1 1129 -0.550000 15.99940
1130 OM 1130 OM OM1 1130 -0.550000 15.99940
1131 OM 1131 OM OM1 1131 -0.550000 15.99940
1132 OM 1132 OM OM1 1132 -0.550000 15.99940
1133 OM 1133 OM OM1 1133 -0.550000 15.99940
1134 OM 1134 OM OM1 1134 -0.550000 15.99940
1135 OM 1135 OM OM1 1135 -0.550000 15.99940
1136 OM 1136 OM OM1 1136 -0.550000 15.99940
1137 OM 1137 OM OM1 1137 -0.550000 15.99940
1138 OM 1138 OM OM1 1138 -0.550000 15.99940
1139 OM 1139 OM OM1 1139 -0.550000 15.99940
1140 OM 1140 OM OM1 1140 -0.550000 15.99940
1141 OM 1141 OM OM1 1141 -0.550000 15.99940
1142 OM 1142 OM OM1 1142 -0.550000 15.99940
1143 OM 1143 OM OM1 1143 -0.550000 15.99940
1144 OM 1144 OM OM1 1144 -0.550000 15.99940
1145 OM 1145 OM OM1 1145 -0.550000 15.99940
1146 OM 1146 OM OM1 1146 -0.550000 15.99940
1147 OM 1147 OM OM1 1147 -0.550000 15.99940
1148 OM 1148 OM OM1 1148 -0.550000 15.99940
1149 OM 1149 OM OM1 1149 -0.550000 15.99940
1150 OM 1150 OM OM1 1150 -0.550000 15.99940
1151 OM 1151 OM OM1 1151 -0.550000 15.99940
1152 OM 1152 OM OM1 1152 -0.550000 15.99940
1153 OM 1153 OM OM1 1153 -0.550000 15.99940
1154 OM 1154 OM OM1 1154 -0.550000 15.99940
1155 OM 1155 OM OM1 1155 -0.550000 15.99940
1156 OM 1156 OM OM1 1156 -0.550000 15.99940
1157 OM 1157 OM OM1 1157 -0.550000 15.99940
1158 OM 1158 OM OM1 1158 -0.550000 15.99940
1159 OM 1159 OM OM1 1159 -0.550000 15.99940
1160 OM 1160 OM OM1 1160 -0.550000 15.99940
1161 OM 1161 OM OM1 1161 -0.550000 15.99940
1162 OM 1162 OM OM1 1162 -0.550000 15.99940
1163 OM 1163 OM OM1 1163 -0.550000 15.99940
1164 OM 1164 OM OM1 1164 -0.550000 15.99940
1165 OM 1165 OM OM1 1165 -0.550000 15.99940
1166 OM 1166 OM OM1 1166 -0.550000 15.99940
1167 OM 1167 OM OM1 1167 -0.550000 15.99940
1168 OM 1168 OM OM1 1168 -0.550000 15.99940
1169 OM 1169 OM OM1 1169 -0.550000 15.99940
1170 OM 1170 OM OM1 1170 -0.550000 15.99940
1171 OM 1171 OM OM1 1171 -0.550000 15.99940
1172 OM 1172 OM OM1 1172 -0.550000 15.99940
1173 OM 1173 OM OM1 1173 -0.550000 15.99940
1174 OM 1174 OM OM1 1174 -0.550000 15.99940
1175 OM 1175 OM OM1 1175 -0.550000 15.99940
1176 OM 1176 OM OM1 1176 -0.550000 15.99940
1177 OM 1177 OM OM1 1177 -0.550000 15.99940
1178 OM 1178 OM OM1 1178 -0.550000 15.99940
1179 OM 1179 OM OM1 1179 -0.550000 15.99940
1180 OM 1180 OM OM1 1180 -0.550000 15.99940
1181 OM 1181 OM OM1 1181 -0.550000 15.99940
1182 OM 1182 OM OM1 1182 -0.550000 15.99940
1183 OM 1183 OM OM1 1183 -0.550000 15.99940
1184 OM 1184 OM OM1 1184 -0.550000 15.99940
1185 OM 1185 OM OM1 1185 -0.550000 15.99940
1186 OM 1186 OM OM1 1186 -0.550000 15.99940
1187 OM 1187 OM OM1 1187 -0.550000 15.99940
1188 OM 1188 OM OM1 1188 -0.550000 15.99940
1189 OM 1189 OM OM1 1189 -0.550000 15.99940
1190 OM 1190 OM OM1 1190 -0.550000 15.99940
1191 OM 1191 OM OM1 1191 -0.550000 15.99940
1192 OM 1192 OM OM1 1192 -0.550000 15.99940
1193 OM 1193 OM OM1 1193 -0.550000 15.99940
1194 OM 1194 OM OM1 1194 -0.550000 15.99940
1195 OM 1195 OM OM1 1195 -0.550000 15.99940
1196 OM 1196 OM OM1 1196 -0.550000 15.99940
1197 OM 1197 OM OM1 1197 -0.550000 15.99940
1198 OM 1198 OM OM1 1198 -0.550000 15.99940
1199 OM 1199 OM OM1 1199 -0.550000 15.99940
1200 OM 1200 OM OM1 1200 -0.550000 15.99940
1201 OM 1201 OM OM1 1201 -0.550000 15.99940
1202 OM 1202 OM OM1 1202 -0.550000 15.99940
1203 OM 1203 OM OM1 1203 -0.550000 15.99940
1204 OM 1204 OM OM1 1204 -0.550000 15.99940
1205 OM 1205 OM OM1 1205 -0.550000 15.99940
1206 OM 1206 OM OM1 1206 -0.550000 15.99940
1207 OM 1207 OM OM1 1207 -0.550000 15.99940
1208 OM 1208 OM OM1 1208 -0.550000 15.99940
1209 OM 1209 OM OM1 1209 -0.550000 15.99940
1210 OM 1210 OM OM1 1210 -0.550000 15.99940
1211 OM 1211 OM OM1 1211 -0.550000 15.99940
1212 OM 1212 OM OM1 1212 -0.550000 15.99940
1213 OM 1213 OM OM1 1213 -0.550000 15.99940
1214 OM 1214 OM OM1 1214 -0.550000 15.99940
1215 OM 1215 OM OM1 1215 -0.550000 15.99940
1216 OM 1216 OM OM1 1216 -0.550000 15.99940
1217 OM 1217 OM OM1 1217 -0.550000 15.99940
1218 OM 1218 OM OM1 1218 -0.550000 15.99940
1219 OM 1219 OM OM1 1219 -0.550000 15.99940
1220 OM 1220 OM OM1 1220 -0.550000 15.99940
1221 OM 1221 OM OM1 1221 -0.550000 15.99940
1222 OM 1222 OM OM1 1222 -0.550000 15.99940
1223 OM 1223 OM OM1 1223 -0.550000 15.99940
1224 OM 1224 OM OM1 1224 -0.550000 15.99940
1225 OM 1225 OM OM1 1225 -0.550000 15.99940
1226 OM 1226 OM OM1 1226 -0.550000 15.99940
1227 OM 1227 OM OM1 1227 -0.550000 15.99940
1228 OM 1228 OM OM1 1228 -0.550000 15.99940
1229 OM 1229 OM OM1 1229 -0.550000 15.99940
1230 OM 1230 OM OM1 1230 -0.550000 15.99940
1231 OM 1231 OM OM1 1231 -0.550000 15.99940
1232 OM 1232 OM OM1 1232 -0.550000 15.99940
1233 OM 1233 OM OM1 1233 -0.550000 15.99940
1234 OM 1234 OM OM1 1234 -0.550000 15.99940
1235 OM 1235 OM OM1 1235 -0.550000 15.99940
1236 OM 1236 OM OM1 1236 -0.550000 15.99940
1237 OM 1237 OM OM1 1237 -0.550000 15.99940
1238 OM 1238 OM OM1 1238 -0.550000 15.99940
1239 OM 1239 OM OM1 1239 -0.550000 15.99940
1240 OM 1240 OM OM1 1240 -0.550000 15.99940
1241 OM 1241 OM OM1 1241 -0.550000 15.99940
1242 OM 1242 OM OM1 1242 -0.550000 15.99940
1243 OM 1243 OM OM1 1243 -0.550000 15.99940
1244 OM 1244 OM OM1 1244 -0.550000 15.99940
1245 OM 1245 OM OM1 1245 -0.550000 15.99940
1246 OM 1246 OM OM1 1246 -0.550000 15.99940
1247 OM 1247 OM OM1 1247 -0.550000 15.99940
1248 OM 1248 OM OM1 1248 -0.550000 15.99940
1249 OM 1249 OM OM1 1249 -0.550000 15.99940
1250 OM 1250 OM OM1 1250 -0.550000 15.99940
1251 OM 1251 OM OM1 1251 -0.550000 15.99940
1252 OM 1252 OM OM1 1252 -0.550000 15.99940
1253 OM 1253 OM OM1 1253 -0.550000 15.99940
1254 OM 1254 OM OM1 1254 -0.550000 15.99940
1255 OM 1255 OM OM1 1255 -0.550000 15.99940
1256 OM 1256 OM OM1 1256 -0.550000 15.99940
1257 OM 1257 OM OM1 1257 -0.550000 15.99940
1258 OM 1258 OM OM1 1258 -0.550000 15.99940
1259 OM 1259 OM OM1 1259 -0.550000 15.99940
1260 OM 1260 OM OM1 1260 -0.550000 15.99940
1261 OM 1261 OM OM1 1261 -0.550000 15.99940
1262 OM 1262 OM OM1 1262 -0.550000 15.99940
1263 OM 1263 OM OM1 1263 -0.550000 15.99940
1264 OM 1264 OM OM1 1264 -0.550000 15.99940
1265 OM 1265 OM OM1 1265 -0.550000 15.99940
1266 OM 1266 OM OM1 1266 -0.550000 15.99940
1267 OM 1267 OM OM1 1267 -0.550000 15.99940
1268 OM 1268 OM OM1 1268 -0.550000 15.99940
1269 OM 1269 OM OM1 1269 -0.550000 15.99940
1270 OM 1270 OM OM1 1270 -0.550000 15.99940
1271 OM 1271 OM OM1 1271 -0.550000 15.99940
1272 OM 1272 OM OM1 1272 -0.550000 15.99940
1273 OM 1273 OM OM1 1273 -0.550000 15.99940
1274 OM 1274 OM OM1 1274 -0.550000 15.99940
1275 OM 1275 OM OM1 1275 -0.550000 15.99940
1276 OM 1276 OM OM1 1276 -0.550000 15.99940
1277 OM 1277 OM OM1 1277 -0.550000 15.99940
1278 OM 1278 OM OM1 1278 -0.550000 15.99940
1279 OM 1279 OM OM1 1279 -0.550000 15.99940
1280 OM 1280 OM OM1 1280 -0.550000 15.99940
1281 OM 1281 OM OM1 1281 -0.550000 15.99940
1282 OM 1282 OM OM1 1282 -0.550000 15.99940
1283 OM 1283 OM OM1 1283 -0.550000 15.99940
1284 OM 1284 OM OM1 1284 -0.550000 15.99940
1285 OM 1285 OM OM1 1285 -0.550000 15.99940
1286 OM 1286 OM OM1 1286 -0.550000 15.99940
1287 OM 1287 OM OM1 1287 -0.550000 15.99940
1288 OM 1288 OM OM1 1288 -0.550000 15.99940
1289 OM 1289 OM OM1 1289 -0.550000 15.99940
1290 OM 1290 OM OM1 1290 -0.550000 15.99940
1291 OM 1291 OM OM1 1291 -0.550000 15.99940
1292 OM 1292 OM OM1 1292 -0.550000 15.99940
1293 OM 1293 OM OM1 1293 -0.550000 15.99940
1294 OM 1294 OM OM1 1294 -0.550000 15.99940
1295 OM 1295 OM OM1 1295 -0.550000 15.99940
1296 OM 1296 OM OM1 1296 -0.550000 15.99940
1297 OM 1297 OM OM1 1297 -0.550000 15.99940
1298 OM 1298 OM OM1 1298 -0.550000 15.99940
1299 OM 1299 OM OM1 1299 -0.550000 15.99940
1300 OM 1300 OM OM1 1300 -0.550000 15.99940
1301 OM 1301 OM OM1 1301 -0.550000 15.99940
1302 OM 1302 OM OM1 1302 -0.550000 15.99940
1303 OM 1303 OM OM1 1303 -0.550000 15.99940
1304 OM 1304 OM OM1 1304 -0.550000 15.99940
1305 OM 1305 OM OM1 1305 -0.550000 15.99940
1306 OM 1306 OM OM1 1306 -0.550000 15.99940
1307 OM 1307 OM OM1 1307 -0.550000 15.99940
1308 OM 1308 OM OM1 1308 -0.550000 15.99940
1309 OM 1309 OM OM1 1309 -0.550000 15.99940
1310 OM 1310 OM OM1 1310 -0.550000 15.99940
1311 OM 1311 OM OM1 1311 -0.550000 15.99940
1312 OM 1312 OM OM1 1312 -0.550000 15.99940
1313 OM 1313 OM OM1 1313 -0.550000 15.99940
1314 OM 1314 OM OM1 1314 -0.550000 15.99940
1315 OM 1315 OM OM1 1315 -0.550000 15.99940
1316 OM 1316 OM OM1 1316 -0.550000 15.99940
1317 OM 1317 OM OM1 1317 -0.550000 15.99940
1318 OM 1318 OM OM1 1318 -0.550000 15.99940
1319 OM 1319 OM OM1 1319 -0.550000 15.99940
1320 OM 1320 OM OM1 1320 -0.550000 15.99940
1321 OM 1321 OM OM1 1321 -0.550000 15.99940
1322 OM 1322 OM OM1 1322 -0.550000 15.99940
1323 OM 1323 OM OM1 1323 -0.550000 15.99940
1324 OM 1324 OM OM1 1324 -0.550000 15.99940
1325 OM 1325 OM OM1 1325 -0.550000 15.99940
1326 OM 1326 OM OM1 1326 -0.550000 15.99940
1327 OM 1327 OM OM1 1327 -0.550000 15.99940
1328 OM 1328 OM OM1 1328 -0.550000 15.99940
1329 OM 1329 OM OM1 1329 -0.550000 15.99940
1330 OM 1330 OM OM1 1330 -0.550000 15.99940
1331 OM 1331 OM OM1 1331 -0.550000 15.99940
1332 OM 1332 OM OM1 1332 -0.550000 15.99940
1333 OM 1333 OM OM1 1333 -0.550000 15.99940
1334 OM 1334 OM OM1 1334 -0.550000 15.99940
1335 OM 1335 OM OM1 1335 -0.550000 15.99940
1336 OM 1336 OM OM1 1336 -0.550000 15.99940
1337 OM 1337 OM OM1 1337 -0.550000 15.99940
1338 OM 1338 OM OM1 1338 -0.550000 15.99940
1339 OM 1339 OM OM1 1339 -0.550000 15.99940
1340 OM 1340 OM OM1 1340 -0.550000 15.99940
1341 OM 1341 OM OM1 1341 -0.550000 15.99940
1342 OM 1342 OM OM1 1342 -0.550000 15.99940
1343 OM 1343 OM OM1 1343 -0.550000 15.99940
1344 OM 1344 OM OM1 1344 -0.550000 15.99940
1345 OM 1345 OM OM1 1345 -0.550000 15.99940
1346 OM 1346 OM OM1 1346 -0.550000 15.99940
1347 OM 1347 OM OM1 1347 -0.550000 15.99940
1348 OM 1348 OM OM1 1348 -0.550000 15.99940
1349 OM 1349 OM OM1 1349 -0.550000 15.99940
1350 OM 1350 OM OM1 1350 -0.550000 15.99940
1351 OM 1351 OM OM1 1351 -0.550000 15.99940
1352 OM 1352 OM OM1 1352 -0.550000 15.99940
1353 OM 1353 OM OM1 1353 -0.550000 15.99940
1354 OM 1354 OM OM1 1354 -0.550000 15.99940
1355 OM 1355 OM OM1 1355 -0.550000 15.99940
1356 OM 1356 OM OM1 1356 -0.550000 15.99940
1357 OM 1357 OM OM1 1357 -0.550000 15.99940
1358 OM 1358 OM OM1 1358 -0.550000 15.99940
1359 OM 1359 OM OM1 1359 -0.550000 15.99940
1360 OM 1360 OM OM1 1360 -0.550000 15.99940
1361 OM 1361 OM OM1 1361 -0.550000 15.99940
1362 OM 1362 OM OM1 1362 -0.550000 15.99940
1363 OM 1363 OM OM1 1363 -0.550000 15.99940
1364 OM 1364 OM OM1 1364 -0.550000 15.99940
1365 OM 1365 OM OM1 1365 -0.550000 15.99940
1366 OM 1366 OM OM1 1366 -0.550000 15.99940
1367 OM 1367 OM OM1 1367 -0.550000 15.99940
1368 OM 1368 OM OM1 1368 -0.550000 15.99940
1369 OM 1369 OM OM1 1369 -0.550000 15.99940
1370 OM 1370 OM OM1 1370 -0.550000 15.99940
1371 OM 1371 OM OM1 1371 -0.550000 15.99940
1372 OM 1372 OM OM1 1372 -0.550000 15.99940
1373 OM 1373 OM OM1 1373 -0.550000 15.99940
1374 OM 1374 OM OM1 1374 -0.550000 15.99940
1375 OM 1375 OM OM1 1375 -0.550000 15.99940
1376 OM 1376 OM OM1 1376 -0.550000 15.99940
1377 OM 1377 OM OM1 1377 -0.550000 15.99940
1378 OM 1378 OM OM1 1378 -0.550000 15.99940
1379 OM 1379 OM OM1 1379 -0.550000 15.99940
1380 OM 1380 OM OM1 1380 -0.550000 15.99940
1381 OM 1381 OM OM1 1381 -0.550000 15.99940
1382 OM 1382 OM OM1 1382 -0.550000 15.99940
1383 OM 1383 OM OM1 1383 -0.550000 15.99940
1384 OM 1384 OM OM1 1384 -0.550000 15.99940
1385 OM 1385 OM OM1 1385 -0.550000 15.99940
1386 OM 1386 OM OM1 1386 -0.550000 15.99940
1387 OM 1387 OM OM1 1387 -0.550000 15.99940
1388 OM 1388 OM OM1 1388 -0.550000 15.99940
1389 OM 1389 OM OM1 1389 -0.550000 15.99940
1390 OM 1390 OM OM1 1390 -0.550000 15.99940
1391 OM 1391 OM OM1 1391 -0.550000 15.99940
1392 OM 1392 OM OM1 1392 -0.550000 15.99940
1393 OM 1393 OM OM1 1393 -0.550000 15.99940
1394 OM 1394 OM OM1 1394 -0.550000 15.99940
1395 OM 1395 OM OM1 1395 -0.550000 15.99940
1396 OM 1396 OM OM1 1396 -0.550000 15.99940
1397 OM 1397 OM OM1 1397 -0.550000 15.99940
1398 OM 1398 OM OM1 1398 -0.550000 15.99940
1399 OM 1399 OM OM1 1399 -0.550000 15.99940
1400 OM 1400 OM OM1 1400 -0.550000 15.99940
1401 OM 1401 OM OM1 1401 -0.550000 15.99940
1402 OM 1402 OM OM1 1402 -0.550000 15.99940
1403 OM 1403 OM OM1 1403 -0.550000 15.99940
1404 OM 1404 OM OM1 1404 -0.550000 15.99940
1405 OM 1405 OM OM1 1405 -0.550000 15.99940
1406 OM 1406 OM OM1 1406 -0.550000 15.99940
1407 OM 1407 OM OM1 1407 -0.550000 15.99940
1408 OM 1408 OM OM1 1408 -0.550000 15.99940
1409 OM 1409 OM OM1 1409 -0.550000 15.99940
1410 OM 1410 OM OM1 1410 -0.550000 15.99940
1411 OM 1411 OM OM1 1411 -0.550000 15.99940
1412 OM 1412 OM OM1 1412 -0.550000 15.99940
1413 OM 1413 OM OM1 1413 -0.550000 15.99940
1414 OM 1414 OM OM1 1414 -0.550000 15.99940
1415 OM 1415 OM OM1 1415 -0.550000 15.99940
1416 OM 1416 OM OM1 1416 -0.550000 15.99940
1417 OM 1417 OM OM1 1417 -0.550000 15.99940
1418 OM 1418 OM OM1 1418 -0.550000 15.99940
1419 OM 1419 OM OM1 1419 -0.550000 15.99940
1420 OM 1420 OM OM1 1420 -0.550000 15.99940
1421 OM 1421 OM OM1 1421 -0.550000 15.99940
1422 OM 1422 OM OM1 1422 -0.550000 15.99940
1423 OM 1423 OM OM1 1423 -0.550000 15.99940
1424 OM 1424 OM OM1 1424 -0.550000 15.99940
1425 OM 1425 OM OM1 1425 -0.550000 15.99940
1426 OM 1426 OM OM1 1426 -0.550000 15.99940
1427 OM 1427 OM OM1 1427 -0.550000 15.99940
1428 OM 1428 OM OM1 1428 -0.550000 15.99940
1429 OM 1429 OM OM1 1429 -0.550000 15.99940
1430 OM 1430 OM OM1 1430 -0.550000 15.99940
1431 OM 1431 OM OM1 1431 -0.550000 15.99940
1432 OM 1432 OM OM1 1432 -0.550000 15.99940
1433 OM 1433 OM OM1 1433 -0.550000 15.99940
1434 OM 1434 OM OM1 1434 -0.550000 15.99940
1435 OM 1435 OM OM1 1435 -0.550000 15.99940
1436 OM 1436 OM OM1 1436 -0.550000 15.99940
1437 OM 1437 OM OM1 1437 -0.550000 15.99940
1438 OM 1438 OM OM1 1438 -0.550000 15.99940
1439 OM 1439 OM OM1 1439 -0.550000 15.99940
1440 OM 1440 OM OM1 1440 -0.550000 15.99940
1441 OM 1441 OM OM1 1441 -0.550000 15.99940
1442 OM 1442 OM OM1 1442 -0.550000 15.99940
1443 OM 1443 OM OM1 1443 -0.550000 15.99940
1444 OM 1444 OM OM1 1444 -0.550000 15.99940
1445 OM 1445 OM OM1 1445 -0.550000 15.99940
1446 OM 1446 OM OM1 1446 -0.550000 15.99940
1447 OM 1447 OM OM1 1447 -0.550000 15.99940
1448 OM 1448 OM OM1 1448 -0.550000 15.99940
1449 OM 1449 OM OM1 1449 -0.550000 15.99940
1450 OM 1450 OM OM1 1450 -0.550000 15.99940
1451 OM 1451 OM OM1 1451 -0.550000 15.99940
1452 OM 1452 OM OM1 1452 -0.550000 15.99940
1453 OM 1453 OM OM1 1453 -0.550000 15.99940
1454 OM 1454 OM OM1 1454 -0.550000 15.99940
1455 OM 1455 OM OM1 1455 -0.550000 15.99940
1456 OM 1456 OM OM1 1456 -0.550000 15.99940
1457 OM 1457 OM OM1 1457 -0.550000 15.99940
1458 OM 1458 OM OM1 1458 -0.550000 15.99940
1459 OM 1459 OM OM1 1459 -0.550000 15.99940
1460 OM 1460 OM OM1 1460 -0.550000 15.99940
1461 OM 1461 OM OM1 1461 -0.550000 15.99940
1462 OM 1462 OM OM1 1462 -0.550000 15.99940
1463 OM 1463 OM OM1 1463 -0.550000 15.99940
1464 OM 1464 OM OM1 1464 -0.550000 15.99940
1465 OM 1465 OM OM1 1465 -0.550000 15.99940
1466 OM 1466 OM OM1 1466 -0.550000 15.99940
1467 OM 1467 OM OM1 1467 -0.550000 15.99940
1468 OM 1468 OM OM1 1468 -0.550000 15.99940
1469 OM 1469 OM OM1 1469 -0.550000 15.99940
1470 OM 1470 OM OM1 1470 -0.550000 15.99940
1471 OM 1471 OM OM1 1471 -0.550000 15.99940
1472 OM 1472 OM OM1 1472 -0.550000 15.99940
1473 OM 1473 OM OM1 1473 -0.550000 15.99940
1474 OM 1474 OM OM1 1474 -0.550000 15.99940
1475 OM 1475 OM OM1 1475 -0.550000 15.99940
1476 OM 1476 OM OM1 1476 -0.550000 15.99940
1477 OM 1477 OM OM1 1477 -0.550000 15.99940
1478 OM 1478 OM OM1 1478 -0.550000 15.99940
1479 OM 1479 OM OM1 1479 -0.550000 15.99940
1480 OM 1480 OM OM1 1480 -0.550000 15.99940
1481 OM 1481 OM OM1 1481 -0.550000 15.99940
1482 OM 1482 OM OM1 1482 -0.550000 15.99940
1483 OM 1483 OM OM1 1483 -0.550000 15.99940
1484 OM 1484 OM OM1 1484 -0.550000 15.99940
1485 OM 1485 OM OM1 1485 -0.550000 15.99940
1486 OM 1486 OM OM1 1486 -0.550000 15.99940
1487 OM 1487 OM OM1 1487 -0.550000 15.99940
1488 OM 1488 OM OM1 1488 -0.550000 15.99940
1489 OM 1489 OM OM1 1489 -0.550000 15.99940
1490 OM 1490 OM OM1 1490 -0.550000 15.99940
1491 OM 1491 OM OM1 1491 -0.550000 15.99940
1492 OM 1492 OM OM1 1492 -0.550000 15.99940
1493 OM 1493 OM OM1 1493 -0.550000 15.99940
1494 OM 1494 OM OM1 1494 -0.550000 15.99940
1495 OM 1495 OM OM1 1495 -0.550000 15.99940
1496 OM 1496 OM OM1 1496 -0.550000 15.99940
1497 OM 1497 OM OM1 1497 -0.550000 15.99940
1498 OM 1498 OM OM1 1498 -0.550000 15.99940
1499 OM 1499 OM OM1 1499 -0.550000 15.99940
1500 OM 1500 OM OM1 1500 -0.550000 15.99940
1501 OM 1501 OM OM1 1501 -0.550000 15.99940
1502 OM 1502 OM OM1 1502 -0.550000 15.99940
1503 OM 1503 OM OM1 1503 -0.550000 15.99940
1504 OM 1504 OM OM1 1504 -0.550000 15.99940
1505 OM 1505 OM OM1 1505 -0.550000 15.99940
1506 OM 1506 OM OM1 1506 -0.550000 15.99940
1507 OM 1507 OM OM1 1507 -0.550000 15.99940
1508 OM 1508 OM OM1 1508 -0.550000 15.99940
1509 OM 1509 OM OM1 1509 -0.550000 15.99940
1510 OM 1510 OM OM1 1510 -0.550000 15.99940
1511 OM 1511 OM OM1 1511 -0.550000 15.99940
1512 OM 1512 OM OM1 1512 -0.550000 15.99940
1513 OM 1513 OM OM1 1513 -0.550000 15.99940
1514 OM 1514 OM OM1 1514 -0.550000 15.99940
1515 OM 1515 OM OM1 1515 -0.550000 15.99940
1516 OM 1516 OM OM1 1516 -0.550000 15.99940
1517 OM 1517 OM OM1 1517 -0.550000 15.99940
1518 OM 1518 OM OM1 1518 -0.550000 15.99940
1519 OM 1519 OM OM1 1519 -0.550000 15.99940
1520 OM 1520 OM OM1 1520 -0.550000 15.99940
1521 OM 1521 OM OM1 1521 -0.550000 15.99940
1522 OM 1522 OM OM1 1522 -0.550000 15.99940
1523 OM 1523 OM OM1 1523 -0.550000 15.99940
1524 OM 1524 OM OM1 1524 -0.550000 15.99940
1525 OM 1525 OM OM1 1525 -0.550000 15.99940
1526 OM 1526 OM OM1 1526 -0.550000 15.99940
1527 OM 1527 OM OM1 1527 -0.550000 15.99940
1528 OM 1528 OM OM1 1528 -0.550000 15.99940
1529 OM 1529 OM OM1 1529 -0.550000 15.99940
1530 OM 1530 OM OM1 1530 -0.550000 15.99940
1531 OM 1531 OM OM1 1531 -0.550000 15.99940
1532 OM 1532 OM OM1 1532 -0.550000 15.99940
1533 OM 1533 OM OM1 1533 -0.550000 15.99940
1534 OM 1534 OM OM1 1534 -0.550000 15.99940
1535 OM 1535 OM OM1 1535 -0.550000 15.99940
1536 OM 1536 OM OM1 1536 -0.550000 15.99940
1537 OM 1537 OM OM1 1537 -0.550000 15.99940
1538 OM 1538 OM OM1 1538 -0.550000 15.99940
1539 OM 1539 OM OM1 1539 -0.550000 15.99940
1540 OM 1540 OM OM1 1540 -0.550000 15.99940
1541 OM 1541 OM OM1 1541 -0.550000 15.99940
1542 OM 1542 OM OM1 1542 -0.550000 15.99940
1543 OM 1543 OM OM1 1543 -0.550000 15.99940
1544 OM 1544 OM OM1 1544 -0.550000 15.99940
1545 OM 1545 OM OM1 1545 -0.550000 15.99940
1546 OM 1546 OM OM1 1546 -0.550000 15.99940
1547 OM 1547 OM OM1 1547 -0.550000 15.99940
1548 OM 1548 OM OM1 1548 -0.550000 15.99940
1549 OM 1549 OM OM1 1549 -0.550000 15.99940
1550 OM 1550 OM OM1 1550 -0.550000 15.99940
1551 OM 1551 OM OM1 1551 -0.550000 15.99940
1552 OM 1552 OM OM1 1552 -0.550000 15.99940
1553 OM 1553 OM OM1 1553 -0.550000 15.99940
1554 OM 1554 OM OM1 1554 -0.550000 15.99940
1555 OM 1555 OM OM1 1555 -0.550000 15.99940
1556 OM 1556 OM OM1 1556 -0.550000 15.99940
1557 OM 1557 OM OM1 1557 -0.550000 15.99940
1558 OM 1558 OM OM1 1558 -0.550000 15.99940
1559 OM 1559 OM OM1 1559 -0.550000 15.99940
1560 OM 1560 OM OM1 1560 -0.550000 15.99940
1561 OM 1561 OM OM1 1561 -0.550000 15.99940
1562 OM 1562 OM OM1 1562 -0.550000 15.99940
1563 OM 1563 OM OM1 1563 -0.550000 15.99940
1564 OM 1564 OM OM1 1564 -0.550000 15.99940
1565 OM 1565 OM OM1 1565 -0.550000 15.99940
1566 OM 1566 OM OM1 1566 -0.550000 15.99940
1567 OM 1567 OM OM1 1567 -0.550000 15.99940
1568 OM 1568 OM OM1 1568 -0.550000 15.99940
1569 OM 1569 OM OM1 1569 -0.550000 15.99940
1570 OM 1570 OM OM1 1570 -0.550000 15.99940
1571 OM 1571 OM OM1 1571 -0.550000 15.99940
1572 OM 1572 OM OM1 1572 -0.550000 15.99940
1573 OM 1573 OM OM1 1573 -0.550000 15.99940
1574 OM 1574 OM OM1 1574 -0.550000 15.99940
1575 OM 1575 OM OM1 1575 -0.550000 15.99940
1576 OM 1576 OM OM1 1576 -0.550000 15.99940
1577 OM 1577 OM OM1 1577 -0.550000 15.99940
1578 OM 1578 OM OM1 1578 -0.550000 15.99940
1579 OM 1579 OM OM1 1579 -0.550000 15.99940
1580 OM 1580 OM OM1 1580 -0.550000 15.99940
1581 OM 1581 OM OM1 1581 -0.550000 15.99940
1582 OM 1582 OM OM1 1582 -0.550000 15.99940
1583 OM 1583 OM OM1 1583 -0.550000 15.99940
1584 OM 1584 OM OM1 1584 -0.550000 15.99940
1585 OM 1585 OM OM1 1585 -0.550000 15.99940
1586 OM 1586 OM OM1 1586 -0.550000 15.99940
1587 OM 1587 OM OM1 1587 -0.550000 15.99940
1588 OM 1588 OM OM1 1588 -0.550000 15.99940
1589 OM 1589 OM OM1 1589 -0.550000 15.99940
1590 OM 1590 OM OM1 1590 -0.550000 15.99940
1591 OM 1591 OM OM1 1591 -0.550000 15.99940
1592 OM 1592 OM OM1 1592 -0.550000 15.99940
1593 OM 1593 OM OM1 1593 -0.550000 15.99940
1594 OM 1594 OM OM1 1594 -0.550000 15.99940
1595 OM 1595 OM OM1 1595 -0.550000 15.99940
1596 OM 1596 OM OM1 1596 -0.550000 15.99940
1597 OM 1597 OM OM1 1597 -0.550000 15.99940
1598 OM 1598 OM OM1 1598 -0.550000 15.99940
1599 OM 1599 OM OM1 1599 -0.550000 15.99940
1600 OM 1600 OM OM1 1600 -0.550000 15.99940
1601 OM 1601 OM OM1 1601 -0.550000 15.99940
1602 OM 1602 OM OM1 1602 -0.550000 15.99940
1603 OM 1603 OM OM1 1603 -0.550000 15.99940
1604 OM 1604 OM OM1 1604 -0.550000 15.99940
1605 OM 1605 OM OM1 1605 -0.550000 15.99940
1606 OM 1606 OM OM1 1606 -0.550000 15.99940
1607 OM 1607 OM OM1 1607 -0.550000 15.99940
1608 OM 1608 OM OM1 1608 -0.550000 15.99940
1609 OM 1609 OM OM1 1609 -0.550000 15.99940
1610 OM 1610 OM OM1 1610 -0.550000 15.99940
1611 OM 1611 OM OM1 1611 -0.550000 15.99940
1612 OM 1612 OM OM1 1612 -0.550000 15.99940
1613 OM 1613 OM OM1 1613 -0.550000 15.99940
1614 OM 1614 OM OM1 1614 -0.550000 15.99940
1615 OM 1615 OM OM1 1615 -0.550000 15.99940
1616 OM 1616 OM OM1 1616 -0.550000 15.99940
1617 OM 1617 OM OM1 1617 -0.550000 15.99940
1618 OM 1618 OM OM1 1618 -0.550000 15.99940
1619 OM 1619 OM OM1 1619 -0.550000 15.99940
1620 OM 1620 OM OM1 1620 -0.550000 15.99940
1621 OM 1621 OM OM1 1621 -0.550000 15.99940
1622 OM 1622 OM OM1 1622 -0.550000 15.99940
1623 OM 1623 OM OM1 1623 -0.550000 15.99940
1624 OM 1624 OM OM1 1624 -0.550000 15.99940
1625 OM 1625 OM OM1 1625 -0.550000 15.99940
1626 OM 1626 OM OM1 1626 -0.550000 15.99940
1627 OM 1627 OM OM1 1627 -0.550000 15.99940
1628 OM 1628 OM OM1 1628 -0.550000 15.99940
1629 OM 1629 OM OM1 1629 -0.550000 15.99940
1630 OM 1630 OM OM1 1630 -0.550000 15.99940
1631 OM 1631 OM OM1 1631 -0.550000 15.99940
1632 OM 1632 OM OM1 1632 -0.550000 15.99940
1633 OM 1633 OM OM1 1633 -0.550000 15.99940
1634 OM 1634 OM OM1 1634 -0.550000 15.99940
1635 OM 1635 OM OM1 1635 -0.550000 15.99940
1636 OM 1636 OM OM1 1636 -0.550000 15.99940
1637 OM 1637 OM OM1 1637 -0.550000 15.99940
1638 OM 1638 OM OM1 1638 -0.550000 15.99940
1639 OM 1639 OM OM1 1639 -0.550000 15.99940
1640 OM 1640 OM OM1 1640 -0.550000 15.99940
1641 OM 1641 OM OM1 1641 -0.550000 15.99940
1642 OM 1642 OM OM1 1642 -0.550000 15.99940
1643 OM 1643 OM OM1 1643 -0.550000 15.99940
1644 OM 1644 OM OM1 1644 -0.550000 15.99940
1645 OM 1645 OM OM1 1645 -0.550000 15.99940
1646 OM 1646 OM OM1 1646 -0.550000 15.99940
1647 OM 1647 OM OM1 1647 -0.550000 15.99940
1648 OM 1648 OM OM1 1648 -0.550000 15.99940
1649 OM 1649 OM OM1 1649 -0.550000 15.99940
1650 OM 1650 OM OM1 1650 -0.550000 15.99940
1651 OM 1651 OM OM1 1651 -0.550000 15.99940
1652 OM 1652 OM OM1 1652 -0.550000 15.99940
1653 OM 1653 OM OM1 1653 -0.550000 15.99940
1654 OM 1654 OM OM1 1654 -0.550000 15.99940
1655 OM 1655 OM OM1 1655 -0.550000 15.99940
1656 OM 1656 OM OM1 1656 -0.550000 15.99940
1657 OM 1657 OM OM1 1657 -0.550000 15.99940
1658 OM 1658 OM OM1 1658 -0.550000 15.99940
1659 OM 1659 OM OM1 1659 -0.550000 15.99940
1660 OM 1660 OM OM1 1660 -0.550000 15.99940
1661 OM 1661 OM OM1 1661 -0.550000 15.99940
1662 OM 1662 OM OM1 1662 -0.550000 15.99940
1663 OM 1663 OM OM1 1663 -0.550000 15.99940
1664 OM 1664 OM OM1 1664 -0.550000 15.99940
1665 OM 1665 OM OM1 1665 -0.550000 15.99940
1666 OM 1666 OM OM1 1666 -0.550000 15.99940
1667 OM 1667 OM OM1 1667 -0.550000 15.99940
1668 OM 1668 OM OM1 1668 -0.550000 15.99940
1669 OM 1669 OM OM1 1669 -0.550000 15.99940
1670 OM 1670 OM OM1 1670 -0.550000 15.99940
1671 OM 1671 OM OM1 1671 -0.550000 15.99940
1672 OM 1672 OM OM1 1672 -0.550000 15.99940
1673 OM 1673 OM OM1 1673 -0.550000 15.99940
1674 OM 1674 OM OM1 1674 -0.550000 15.99940
1675 OM 1675 OM OM1 1675 -0.550000 15.99940
1676 OM 1676 OM OM1 1676 -0.550000 15.99940
1677 OM 1677 OM OM1 1677 -0.550000 15.99940
1678 OM 1678 OM OM1 1678 -0.550000 15.99940
1679 OM 1679 OM OM1 1679 -0.550000 15.99940
1680 OM 1680 OM OM1 1680 -0.550000 15.99940
1681 OM 1681 OM OM1 1681 -0.550000 15.99940
1682 OM 1682 OM OM1 1682 -0.550000 15.99940
1683 OM 1683 OM OM1 1683 -0.550000 15.99940
1684 OM 1684 OM OM1 1684 -0.550000 15.99940
1685 OM 1685 OM OM1 1685 -0.550000 15.99940
1686 OM 1686 OM OM1 1686 -0.550000 15.99940
1687 OM 1687 OM OM1 1687 -0.550000 15.99940
1688 OM 1688 OM OM1 1688 -0.550000 15.99940
1689 OM 1689 OM OM1 1689 -0.550000 15.99940
1690 OM 1690 OM OM1 1690 -0.550000 15.99940
1691 OM 1691 OM OM1 1691 -0.550000 15.99940
1692 OM 1692 OM OM1 1692 -0.550000 15.99940
1693 OM 1693 OM OM1 1693 -0.550000 15.99940
1694 OM 1694 OM OM1 1694 -0.550000 15.99940
1695 OM 1695 OM OM1 1695 -0.550000 15.99940
1696 OM 1696 OM OM1 1696 -0.550000 15.99940
1697 OM 1697 OM OM1 1697 -0.550000 15.99940
1698 OM 1698 OM OM1 1698 -0.550000 15.99940
1699 OM 1699 OM OM1 1699 -0.550000 15.99940
1700 OM 1700 OM OM1 1700 -0.550000 15.99940
1701 OM 1701 OM OM1 1701 -0.550000 15.99940
1702 OM 1702 OM OM1 1702 -0.550000 15.99940
1703 OM 1703 OM OM1 1703 -0.550000 15.99940
1704 OM 1704 OM OM1 1704 -0.550000 15.99940
1705 OM 1705 OM OM1 1705 -0.550000 15.99940
1706 OM 1706 OM OM1 1706 -0.550000 15.99940
1707 OM 1707 OM OM1 1707 -0.550000 15.99940
1708 OM 1708 OM OM1 1708 -0.550000 15.99940
1709 OM 1709 OM OM1 1709 -0.550000 15.99940
1710 OM 1710 OM OM1 1710 -0.550000 15.99940
1711 OM 1711 OM OM1 1711 -0.550000 15.99940
1712 OM 1712 OM OM1 1712 -0.550000 15.99940
1713 OM 1713 OM OM1 1713 -0.550000 15.99940
1714 OM 1714 OM OM1 1714 -0.550000 15.99940
1715 OM 1715 OM OM1 1715 -0.550000 15.99940
1716 OM 1716 OM OM1 1716 -0.550000 15.99940
1717 OM 1717 OM OM1 1717 -0.550000 15.99940
1718 OM 1718 OM OM1 1718 -0.550000 15.99940
1719 OM 1719 OM OM1 1719 -0.550000 15.99940
1720 OM 1720 OM OM1 1720 -0.550000 15.99940
1721 OM 1721 OM OM1 1721 -0.550000 15.99940
1722 OM 1722 OM OM1 1722 -0.550000 15.99940
1723 OM 1723 OM OM1 1723 -0.550000 15.99940
1724 OM 1724 OM OM1 1724 -0.550000 15.99940
1725 OM 1725 OM OM1 1725 -0.550000 15.99940
1726 OM 1726 OM OM1 1726 -0.550000 15.99940
1727 OM 1727 OM OM1 1727 -0.550000 15.99940
1728 OM 1728 OM OM1 1728 -0.550000 15.99940
1729 OM 1729 OM OM1 1729 -0.550000 15.99940
1730 OM 1730 OM OM1 1730 -0.550000 15.99940
1731 OM 1731 OM OM1 1731 -0.550000 15.99940
1732 OM 1732 OM OM1 1732 -0.550000 15.99940
1733 OM 1733 OM OM1 1733 -0.550000 15.99940
1734 OM 1734 OM OM1 1734 -0.550000 15.99940
1735 OM 1735 OM OM1 1735 -0.550000 15.99940
1736 OM 1736 OM OM1 1736 -0.550000 15.99940
1737 OM 1737 OM OM1 1737 -0.550000 15.99940
1738 OM 1738 OM OM1 1738 -0.550000 15.99940
1739 OM 1739 OM OM1 1739 -0.550000 15.99940
1740 OM 1740 OM OM1 1740 -0.550000 15.99940
1741 OM 1741 OM OM1 1741 -0.550000 15.99940
1742 OM 1742 OM OM1 1742 -0.550000 15.99940
1743 OM 1743 OM OM1 1743 -0.550000 15.99940
1744 OM 1744 OM OM1 1744 -0.550000 15.99940
1745 OM 1745 OM OM1 1745 -0.550000 15.99940
1746 OM 1746 OM OM1 1746 -0.550000 15.99940
1747 OM 1747 OM OM1 1747 -0.550000 15.99940
1748 OM 1748 OM OM1 1748 -0.550000 15.99940
1749 OM 1749 OM OM1 1749 -0.550000 15.99940
1750 OM 1750 OM OM1 1750 -0.550000 15.99940
1751 OM 1751 OM OM1 1751 -0.550000 15.99940
1752 OM 1752 OM OM1 1752 -0.550000 15.99940
1753 OM 1753 OM OM1 1753 -0.550000 15.99940
1754 OM 1754 OM OM1 1754 -0.550000 15.99940
1755 OM 1755 OM OM1 1755 -0.550000 15.99940
1756 OM 1756 OM OM1 1756 -0.550000 15.99940
1757 OM 1757 OM OM1 1757 -0.550000 15.99940
1758 OM 1758 OM OM1 1758 -0.550000 15.99940
1759 OM 1759 OM OM1 1759 -0.550000 15.99940
1760 OM 1760 OM OM1 1760 -0.550000 15.99940
1761 OM 1761 OM OM1 1761 -0.550000 15.99940
1762 OM 1762 OM OM1 1762 -0.550000 15.99940
1763 OM 1763 OM OM1 1763 -0.550000 15.99940
1764 OM 1764 OM OM1 1764 -0.550000 15.99940
1765 OM 1765 OM OM1 1765 -0.550000 15.99940
1766 OM 1766 OM OM1 1766 -0.550000 15.99940
1767 OM 1767 OM OM1 1767 -0.550000 15.99940
1768 OM 1768 OM OM1 1768 -0.550000 15.99940
1769 OM 1769 OM OM1 1769 -0.550000 15.99940
1770 OM 1770 OM OM1 1770 -0.550000 15.99940
1771 OM 1771 OM OM1 1771 -0.550000 15.99940
1772 OM 1772 OM OM1 1772 -0.550000 15.99940
1773 OM 1773 OM OM1 1773 -0.550000 15.99940
1774 OM 1774 OM OM1 1774 -0.550000 15.99940
1775 OM 1775 OM OM1 1775 -0.550000 15.99940
1776 OM 1776 OM OM1 1776 -0.550000 15.99940
1777 OM 1777 OM OM1 1777 -0.550000 15.99940
1778 OM 1778 OM OM1 1778 -0.550000 15.99940
1779 OM 1779 OM OM1 1779 -0.550000 15.99940
1780 OM 1780 OM OM1 1780 -0.550000 15.99940
1781 OM 1781 OM OM1 1781 -0.550000 15.99940
1782 OM 1782 OM OM1 1782 -0.550000 15.99940
1783 OM 1783 OM OM1 1783 -0.550000 15.99940
1784 OM 1784 OM OM1 1784 -0.550000 15.99940
1785 OM 1785 OM OM1 1785 -0.550000 15.99940
1786 OM 1786 OM OM1 1786 -0.550000 15.99940
1787 OM 1787 OM OM1 1787 -0.550000 15.99940
1788 OM 1788 OM OM1 1788 -0.550000 15.99940
1789 OM 1789 OM OM1 1789 -0.550000 15.99940
1790 OM 1790 OM OM1 1790 -0.550000 15.99940
1791 OM 1791 OM OM1 1791 -0.550000 15.99940
1792 OM 1792 OM OM1 1792 -0.550000 15.99940
1793 OM 1793 OM OM1 1793 -0.550000 15.99940
1794 OM 1794 OM OM1 1794 -0.550000 15.99940
1795 OM 1795 OM OM1 1795 -0.550000 15.99940
1796 OM 1796 OM OM1 1796 -0.550000 15.99940
1797 OM 1797 OM OM1 1797 -0.550000 15.99940
1798 OM 1798 OM OM1 1798 -0.550000 15.99940
1799 OM 1799 OM OM1 1799 -0.550000 15.99940
1800 OM 1800 OM OM1 1800 -0.550000 15.99940
1801 OM 1801 OM OM1 1801 -0.550000 15.99940
1802 OM 1802 OM OM1 1802 -0.550000 15.99940
1803 OM 1803 OM OM1 1803 -0.550000 15.99940
1804 OM 1804 OM OM1 1804 -0.550000 15.99940
1805 OM 1805 OM OM1 1805 -0.550000 15.99940
1806 OM 1806 OM OM1 1806 -0.550000 15.99940
1807 OM 1807 OM OM1 1807 -0.550000 15.99940
1808 OM 1808 OM OM1 1808 -0.550000 15.99940
1809 OM 1809 OM OM1 1809 -0.550000 15.99940
1810 OM 1810 OM OM1 1810 -0.550000 15.99940
1811 OM 1811 OM OM1 1811 -0.550000 15.99940
1812 OM 1812 OM OM1 1812 -0.550000 15.99940
1813 OM 1813 OM OM1 1813 -0.550000 15.99940
1814 OM 1814 OM OM1 1814 -0.550000 15.99940
1815 OM 1815 OM OM1 1815 -0.550000 15.99940
1816 OM 1816 OM OM1 1816 -0.550000 15.99940
1817 OM 1817 OM OM1 1817 -0.550000 15.99940
1818 OM 1818 OM OM1 1818 -0.550000 15.99940
1819 OM 1819 OM OM1 1819 -0.550000 15.99940
1820 OM 1820 OM OM1 1820 -0.550000 15.99940
1821 OM 1821 OM OM1 1821 -0.550000 15.99940
1822 OM 1822 OM OM1 1822 -0.550000 15.99940
1823 OM 1823 OM OM1 1823 -0.550000 15.99940
1824 OM 1824 OM OM1 1824 -0.550000 15.99940
1825 OM 1825 OM OM1 1825 -0.550000 15.99940
1826 OM 1826 OM OM1 1826 -0.550000 15.99940
1827 OM 1827 OM OM1 1827 -0.550000 15.99940
1828 OM 1828 OM OM1 1828 -0.550000 15.99940
1829 OM 1829 OM OM1 1829 -0.550000 15.99940
1830 OM 1830 OM OM1 1830 -0.550000 15.99940
1831 OM 1831 OM OM1 1831 -0.550000 15.99940
1832 OM 1832 OM OM1 1832 -0.550000 15.99940
1833 OM 1833 OM OM1 1833 -0.550000 15.99940
1834 OM 1834 OM OM1 1834 -0.550000 15.99940
1835 OM 1835 OM OM1 1835 -0.550000 15.99940
1836 OM 1836 OM OM1 1836 -0.550000 15.99940
1837 OM 1837 OM OM1 1837 -0.550000 15.99940
1838 OM 1838 OM OM1 1838 -0.550000 15.99940
1839 OM 1839 OM OM1 1839 -0.550000 15.99940
1840 OM 1840 OM OM1 1840 -0.550000 15.99940
1841 OM 1841 OM OM1 1841 -0.550000 15.99940
1842 OM 1842 OM OM1 1842 -0.550000 15.99940
1843 OM 1843 OM OM1 1843 -0.550000 15.99940
1844 OM 1844 OM OM1 1844 -0.550000 15.99940
1845 OM 1845 OM OM1 1845 -0.550000 15.99940
1846 OM 1846 OM OM1 1846 -0.550000 15.99940
1847 OM 1847 OM OM1 1847 -0.550000 15.99940
1848 OM 1848 OM OM1 1848 -0.550000 15.99940
1849 OM 1849 OM OM1 1849 -0.550000 15.99940
1850 OM 1850 OM OM1 1850 -0.550000 15.99940
1851 OM 1851 OM OM1 1851 -0.550000 15.99940
1852 OM 1852 OM OM1 1852 -0.550000 15.99940
1853 OM 1853 OM OM1 1853 -0.550000 15.99940
1854 OM 1854 OM OM1 1854 -0.550000 15.99940
1855 OM 1855 OM OM1 1855 -0.550000 15.99940
1856 OM 1856 OM OM1 1856 -0.550000 15.99940
1857 OM 1857 OM OM1 1857 -0.550000 15.99940
1858 OM 1858 OM OM1 1858 -0.550000 15.99940
1859 OM 1859 OM OM1 1859 -0.550000 15.99940
1860 OM 1860 OM OM1 1860 -0.550000 15.99940
1861 OM 1861 OM OM1 1861 -0.550000 15.99940
1862 OM 1862 OM OM1 1862 -0.550000 15.99940
1863 OM 1863 OM OM1 1863 -0.550000 15.99940
1864 OM 1864 OM OM1 1864 -0.550000 15.99940
1865 OM 1865 OM OM1 1865 -0.550000 15.99940
1866 OM 1866 OM OM1 1866 -0.550000 15.99940
1867 OM 1867 OM OM1 1867 -0.550000 15.99940
1868 OM 1868 OM OM1 1868 -0.550000 15.99940
1869 OM 1869 OM OM1 1869 -0.550000 15.99940
1870 OM 1870 OM OM1 1870 -0.550000 15.99940
1871 OM 1871 OM OM1 1871 -0.550000 15.99940
1872 OM 1872 OM OM1 1872 -0.550000 15.99940
1873 OM 1873 OM OM1 1873 -0.550000 15.99940
1874 OM 1874 OM OM1 1874 -0.550000 15.99940
1875 OM 1875 OM OM1 1875 -0.550000 15.99940
1876 OM 1876 OM OM1 1876 -0.550000 15.99940
1877 OM 1877 OM OM1 1877 -0.550000 15.99940
1878 OM 1878 OM OM1 1878 -0.550000 15.99940
1879 OM 1879 OM OM1 1879 -0.550000 15.99940
1880 OM 1880 OM OM1 1880 -0.550000 15.99940
1881 OM 1881 OM OM1 1881 -0.550000 15.99940
1882 OM 1882 OM OM1 1882 -0.550000 15.99940
1883 OM 1883 OM OM1 1883 -0.550000 15.99940
1884 OM 1884 OM OM1 1884 -0.550000 15.99940
1885 OM 1885 OM OM1 1885 -0.550000 15.99940
1886 OM 1886 OM OM1 1886 -0.550000 15.99940
1887 OM 1887 OM OM1 1887 -0.550000 15.99940
1888 OM 1888 OM OM1 1888 -0.550000 15.99940
1889 OM 1889 OM OM1 1889 -0.550000 15.99940
1890 OM 1890 OM OM1 1890 -0.550000 15.99940
1891 OM 1891 OM OM1 1891 -0.550000 15.99940
1892 OM 1892 OM OM1 1892 -0.550000 15.99940
1893 OM 1893 OM OM1 1893 -0.550000 15.99940
1894 OM 1894 OM OM1 1894 -0.550000 15.99940
1895 OM 1895 OM OM1 1895 -0.550000 15.99940
1896 OM 1896 OM OM1 1896 -0.550000 15.99940
1897 OM 1897 OM OM1 1897 -0.550000 15.99940
1898 OM 1898 OM OM1 1898 -0.550000 15.99940
1899 OM 1899 OM OM1 1899 -0.550000 15.99940
1900 OM 1900 OM OM1 1900 -0.550000 15.99940
1901 OM 1901 OM OM1 1901 -0.550000 15.99940
1902 OM 1902 OM OM1 1902 -0.550000 15.99940
1903 OM 1903 OM OM1 1903 -0.550000 15.99940
1904 OM 1904 OM OM1 1904 -0.550000 15.99940
1905 OM 1905 OM OM1 1905 -0.550000 15.99940
1906 OM 1906 OM OM1 1906 -0.550000 15.99940
1907 OM 1907 OM OM1 1907 -0.550000 15.99940
1908 OM 1908 OM OM1 1908 -0.550000 15.99940
1909 OM 1909 OM OM1 1909 -0.550000 15.99940
1910 OM 1910 OM OM1 1910 -0.550000 15.99940
1911 OM 1911 OM OM1 1911 -0.550000 15.99940
1912 OM 1912 OM OM1 1912 -0.550000 15.99940
1913 OM 1913 OM OM1 1913 -0.550000 15.99940
1914 OM 1914 OM OM1 1914 -0.550000 15.99940
1915 OM 1915 OM OM1 1915 -0.550000 15.99940
1916 OM 1916 OM OM1 1916 -0.550000 15.99940
1917 OM 1917 OM OM1 1917 -0.550000 15.99940
1918 OM 1918 OM OM1 1918 -0.550000 15.99940
1919 OM 1919 OM OM1 1919 -0.550000 15.99940
1920 OM 1920 OM OM1 1920 -0.550000 15.99940
1921 OM 1921 OM OM1 1921 -0.550000 15.99940
1922 OM 1922 OM OM1 1922 -0.550000 15.99940
1923 OM 1923 OM OM1 1923 -0.550000 15.99940
1924 OM 1924 OM OM1 1924 -0.550000 15.99940
1925 OM 1925 OM OM1 1925 -0.550000 15.99940
1926 OM 1926 OM OM1 1926 -0.550000 15.99940
1927 OM 1927 OM OM1 1927 -0.550000 15.99940
1928 OM 1928 OM OM1 1928 -0.550000 15.99940
1929 OM 1929 OM OM1 1929 -0.550000 15.99940
1930 OM 1930 OM OM1 1930 -0.550000 15.99940
1931 OM 1931 OM OM1 1931 -0.550000 15.99940
1932 OM 1932 OM OM1 1932 -0.550000 15.99940
1933 OM 1933 OM OM1 1933 -0.550000 15.99940
1934 OM 1934 OM OM1 1934 -0.550000 15.99940
1935 OM 1935 OM OM1 1935 -0.550000 15.99940
1936 OM 1936 OM OM1 1936 -0.550000 15.99940
1937 OM 1937 OM OM1 1937 -0.550000 15.99940
1938 OM 1938 OM OM1 1938 -0.550000 15.99940
1939 OM 1939 OM OM1 1939 -0.550000 15.99940
1940 OM 1940 OM OM1 1940 -0.550000 15.99940
1941 OM 1941 OM OM1 1941 -0.550000 15.99940
1942 OM 1942 OM OM1 1942 -0.550000 15.99940
1943 OM 1943 OM OM1 1943 -0.550000 15.99940
1944 OM 1944 OM OM1 1944 -0.550000 15.99940
1945 OM 1945 OM OM1 1945 -0.550000 15.99940
1946 OM 1946 OM OM1 1946 -0.550000 15.99940
1947 OM 1947 OM OM1 1947 -0.550000 15.99940
1948 OM 1948 OM OM1 1948 -0.550000 15.99940
1949 OM 1949 OM OM1 1949 -0.550000 15.99940
1950 OM 1950 OM OM1 1950 -0.550000 15.99940
1951 OM 1951 OM OM1 1951 -0.550000 15.99940
1952 OM 1952 OM OM1 1952 -0.550000 15.99940
1953 OM 1953 OM OM1 1953 -0.550000 15.99940
1954 OM 1954 OM OM1 1954 -0.550000 15.99940
1955 OM 1955 OM OM1 1955 -0.550000 15.99940
1956 OM 1956 OM OM1 1956 -0.550000 15.99940
1957 OM 1957 OM OM1 1957 -0.550000 15.99940
1958 OM 1958 OM OM1 1958 -0.550000 15.99940
1959 OM 1959 OM OM1 1959 -0.550000 15.99940
1960 OM 1960 OM OM1 1960 -0.550000 15.99940
1961 OM 1961 OM OM1 1961 -0.550000 15.99940
1962 OM 1962 OM OM1 1962 -0.550000 15.99940
1963 OM 1963 OM OM1 1963 -0.550000 15.99940
1964 OM 1964 OM OM1 1964 -0.550000 15.99940
1965 OM 1965 OM OM1 1965 -0.550000 15.99940
1966 OM 1966 OM OM1 1966 -0.550000 15.99940
1967 OM 1967 OM OM1 1967 -0.550000 15.99940
1968 OM 1968 OM OM1 1968 -0.550000 15.99940
1969 OM 1969 OM OM1 1969 -0.550000 15.99940
1970 OM 1970 OM OM1 1970 -0.550000 15.99940
1971 OM 1971 OM OM1 1971 -0.550000 15.99940
1972 OM 1972 OM OM1 1972 -0.550000 15.99940
1973 OM 1973 OM OM1 1973 -0.550000 15.99940
1974 OM 1974 OM OM1 1974 -0.550000 15.99940
1975 OM 1975 OM OM1 1975 -0.550000 15.99940
1976 OM 1976 OM OM1 1976 -0.550000 15.99940
1977 OM 1977 OM OM1 1977 -0.550000 15.99940
1978 OM 1978 OM OM1 1978 -0.550000 15.99940
1979 OM 1979 OM OM1 1979 -0.550000 15.99940
1980 OM 1980 OM OM1 1980 -0.550000 15.99940
1981 OM 1981 OM OM1 1981 -0.550000 15.99940
1982 OM 1982 OM OM1 1982 -0.550000 15.99940
1983 OM 1983 OM OM1 1983 -0.550000 15.99940
1984 OM 1984 OM OM1 1984 -0.550000 15.99940
1985 OM 1985 OM OM1 1985 -0.550000 15.99940
1986 OM 1986 OM OM1 1986 -0.550000 15.99940
1987 OM 1987 OM OM1 1987 -0.550000 15.99940
1988 OM 1988 OM OM1 1988 -0.550000 15.99940
1989 OM 1989 OM OM1 1989 -0.550000 15.99940
1990 OM 1990 OM OM1 1990 -0.550000 15.99940
1991 OM 1991 OM OM1 1991 -0.550000 15.99940
1992 OM 1992 OM OM1 1992 -0.550000 15.99940
1993 OM 1993 OM OM1 1993 -0.550000 15.99940
1994 OM 1994 OM OM1 1994 -0.550000 15.99940
1995 OM 1995 OM OM1 1995 -0.550000 15.99940
1996 OM 1996 OM OM1 1996 -0.550000 15.99940
1997 OM 1997 OM OM1 1997 -0.550000 15.99940
1998 OM 1998 OM OM1 1998 -0.550000 15.99940
1999 OM 1999 OM OM1 1999 -0.550000 15.99940
2000 OM 2000 OM OM1 2000 -0.550000 15.99940
2001 OM 2001 OM OM1 2001 -0.550000 15.99940
2002 OM 2002 OM OM1 2002 -0.550000 15.99940
2003 OM 2003 OM OM1 2003 -0.550000 15.99940
2004 OM 2004 OM OM1 2004 -0.550000 15.99940
2005 OM 2005 OM OM1 2005 -0.550000 15.99940
2006 OM 2006 OM OM1 2006 -0.550000 15.99940
2007 OM 2007 OM OM1 2007 -0.550000 15.99940
2008 OM 2008 OM OM1 2008 -0.550000 15.99940
2009 OM 2009 OM OM1 2009 -0.550000 15.99940
2010 OM 2010 OM OM1 2010 -0.550000 15.99940
2011 OM 2011 OM OM1 2011 -0.550000 15.99940
2012 OM 2012 OM OM1 2012 -0.550000 15.99940
2013 OM 2013 OM OM1 2013 -0.550000 15.99940
2014 OM 2014 OM OM1 2014 -0.550000 15.99940
2015 OM 2015 OM OM1 2015 -0.550000 15.99940
2016 OM 2016 OM OM1 2016 -0.550000 15.99940
2017 OM 2017 OM OM1 2017 -0.550000 15.99940
2018 OM 2018 OM OM1 2018 -0.550000 15.99940
2019 OM 2019 OM OM1 2019 -0.550000 15.99940
2020 OM 2020 OM OM1 2020 -0.550000 15.99940
2021 OM 2021 OM OM1 2021 -0.550000 15.99940
2022 OM 2022 OM OM1 2022 -0.550000 15.99940
2023 OM 2023 OM OM1 2023 -0.550000 15.99940
2024 OM 2024 OM OM1 2024 -0.550000 15.99940
2025 OM 2025 OM OM1 2025 -0.550000 15.99940
2026 OM 2026 OM OM1 2026 -0.550000 15.99940
2027 OM 2027 OM OM1 2027 -0.550000 15.99940
2028 OM 2028 OM OM1 2028 -0.550000 15.99940
2029 OM 2029 OM OM1 2029 -0.550000 15.99940
2030 OM 2030 OM OM1 2030 -0.550000 15.99940
2031 OM 2031 OM OM1 2031 -0.550000 15.99940
2032 OM 2032 OM OM1 2032 -0.550000 15.99940
2033 OM 2033 OM OM1 2033 -0.550000 15.99940
2034 OM 2034 OM OM1 2034 -0.550000 15.99940
2035 OM 2035 OM OM1 2035 -0.550000 15.99940
2036 OM 2036 OM OM1 2036 -0.550000 15.99940
2037 OM 2037 OM OM1 2037 -0.550000 15.99940
2038 OM 2038 OM OM1 2038 -0.550000 15.99940
2039 OM 2039 OM OM1 2039 -0.550000 15.99940
2040 OM 2040 OM OM1 2040 -0.550000 15.99940
2041 OM 2041 OM OM1 2041 -0.550000 15.99940
2042 OM 2042 OM OM1 2042 -0.550000 15.99940
2043 OM 2043 OM OM1 2043 -0.550000 15.99940
2044 OM 2044 OM OM1 2044 -0.550000 15.99940
2045 OM 2045 OM OM1 2045 -0.550000 15.99940
2046 OM 2046 OM OM1 2046 -0.550000 15.99940
2047 OM 2047 OM OM1 2047 -0.550000 15.99940
2048 OM 2048 OM OM1 2048 -0.550000 15.99940
2049 OM 2049 OM OM1 2049 -0.550000 15.99940
2050 OM 2050 OM OM1 2050 -0.550000 15.99940
2051 OM 2051 OM OM1 2051 -0.550000 15.99940
2052 OM 2052 OM OM1 2052 -0.550000 15.99940
2053 OM 2053 OM OM1 2053 -0.550000 15.99940
2054 OM 2054 OM OM1 2054 -0.550000 15.99940
2055 OM 2055 OM OM1 2055 -0.550000 15.99940
2056 OM 2056 OM OM1 2056 -0.550000 15.99940
2057 OM 2057 OM OM1 2057 -0.550000 15.99940
2058 OM 2058 OM OM1 2058 -0.550000 15.99940
2059 OM 2059 OM OM1 2059 -0.550000 15.99940
2060 OM 2060 OM OM1 2060 -0.550000 15.99940
2061 OM 2061 OM OM1 2061 -0.550000 15.99940
2062 OM 2062 OM OM1 2062 -0.550000 15.99940
2063 OM 2063 OM OM1 2063 -0.550000 15.99940
2064 OM 2064 OM OM1 2064 -0.550000 15.99940
2065 OM 2065 OM OM1 2065 -0.550000 15.99940
2066 OM 2066 OM OM1 2066 -0.550000 15.99940
2067 OM 2067 OM OM1 2067 -0.550000 15.99940
2068 OM 2068 OM OM1 2068 -0.550000 15.99940
2069 OM 2069 OM OM1 2069 -0.550000 15.99940
2070 OM 2070 OM OM1 2070 -0.550000 15.99940
2071 OM 2071 OM OM1 2071 -0.550000 15.99940
2072 OM 2072 OM OM1 2072 -0.550000 15.99940
2073 OM 2073 OM OM1 2073 -0.550000 15.99940
2074 OM 2074 OM OM1 2074 -0.550000 15.99940
2075 OM 2075 OM OM1 2075 -0.550000 15.99940
2076 OM 2076 OM OM1 2076 -0.550000 15.99940
2077 OM 2077 OM OM1 2077 -0.550000 15.99940
2078 OM 2078 OM OM1 2078 -0.550000 15.99940
2079 OM 2079 OM OM1 2079 -0.550000 15.99940
2080 OM 2080 OM OM1 2080 -0.550000 15.99940
2081 OM 2081 OM OM1 2081 -0.550000 15.99940
2082 OM 2082 OM OM1 2082 -0.550000 15.99940
2083 OM 2083 OM OM1 2083 -0.550000 15.99940
2084 OM 2084 OM OM1 2084 -0.550000 15.99940
2085 OM 2085 OM OM1 2085 -0.550000 15.99940
2086 OM 2086 OM OM1 2086 -0.550000 15.99940
2087 OM 2087 OM OM1 2087 -0.550000 15.99940
2088 OM 2088 OM OM1 2088 -0.550000 15.99940
2089 OM 2089 OM OM1 2089 -0.550000 15.99940
2090 OM 2090 OM OM1 2090 -0.550000 15.99940
2091 OM 2091 OM OM1 2091 -0.550000 15.99940
2092 OM 2092 OM OM1 2092 -0.550000 15.99940
2093 OM 2093 OM OM1 2093 -0.550000 15.99940
2094 OM 2094 OM OM1 2094 -0.550000 15.99940
2095 OM 2095 OM OM1 2095 -0.550000 15.99940
2096 OM 2096 OM OM1 2096 -0.550000 15.99940
2097 OM 2097 OM OM1 2097 -0.550000 15.99940
2098 OM 2098 OM OM1 2098 -0.550000 15.99940
2099 OM 2099 OM OM1 2099 -0.550000 15.99940
2100 OM 2100 OM OM1 2100 -0.550000 15.99940
2101 OM 2101 OM OM1 2101 -0.550000 15.99940
2102 OM 2102 OM OM1 2102 -0.550000 15.99940
2103 OM 2103 OM OM1 2103 -0.550000 15.99940
2104 OM 2104 OM OM1 2104 -0.550000 15.99940
2105 OM 2105 OM OM1 2105 -0.550000 15.99940
2106 OM 2106 OM OM1 2106 -0.550000 15.99940
2107 OM 2107 OM OM1 2107 -0.550000 15.99940
2108 OM 2108 OM OM1 2108 -0.550000 15.99940
2109 OM 2109 OM OM1 2109 -0.550000 15.99940
2110 OM 2110 OM OM1 2110 -0.550000 15.99940
2111 OM 2111 OM OM1 2111 -0.550000 15.99940
2112 OM 2112 OM OM1 2112 -0.550000 15.99940
2113 OM 2113 OM OM1 2113 -0.550000 15.99940
2114 OM 2114 OM OM1 2114 -0.550000 15.99940
2115 OM 2115 OM OM1 2115 -0.550000 15.99940
2116 OM 2116 OM OM1 2116 -0.550000 15.99940
2117 OM 2117 OM OM1 2117 -0.550000 15.99940
2118 OM 2118 OM OM1 2118 -0.550000 15.99940
2119 OM 2119 OM OM1 2119 -0.550000 15.99940
2120 OM 2120 OM OM1 2120 -0.550000 15.99940
2121 OM 2121 OM OM1 2121 -0.550000 15.99940
2122 OM 2122 OM OM1 2122 -0.550000 15.99940
2123 OM 2123 OM OM1 2123 -0.550000 15.99940
2124 OM 2124 OM OM1 2124 -0.550000 15.99940
2125 OM 2125 OM OM1 2125 -0.550000 15.99940
2126 OM 2126 OM OM1 2126 -0.550000 15.99940
2127 OM 2127 OM OM1 2127 -0.550000 15.99940
2128 OM 2128 OM OM1 2128 -0.550000 15.99940
2129 OM 2129 OM OM1 2129 -0.550000 15.99940
2130 OM 2130 OM OM1 2130 -0.550000 15.99940
2131 OM 2131 OM OM1 2131 -0.550000 15.99940
2132 OM 2132 OM OM1 2132 -0.550000 15.99940
2133 OM 2133 OM OM1 2133 -0.550000 15.99940
2134 OM 2134 OM OM1 2134 -0.550000 15.99940
2135 OM 2135 OM OM1 2135 -0.550000 15.99940
2136 OM 2136 OM OM1 2136 -0.550000 15.99940
2137 OM 2137 OM OM1 2137 -0.550000 15.99940
2138 OM 2138 OM OM1 2138 -0.550000 15.99940
2139 OM 2139 OM OM1 2139 -0.550000 15.99940
2140 OM 2140 OM OM1 2140 -0.550000 15.99940
2141 OM 2141 OM OM1 2141 -0.550000 15.99940
2142 OM 2142 OM OM1 2142 -0.550000 15.99940
2143 OM 2143 OM OM1 2143 -0.550000 15.99940
2144 OM 2144 OM OM1 2144 -0.550000 15.99940
2145 OM 2145 OM OM1 2145 -0.550000 15.99940
2146 OM 2146 OM OM1 2146 -0.550000 15.99940
2147 OM 2147 OM OM1 2147 -0.550000 15.99940
2148 OM 2148 OM OM1 2148 -0.550000 15.99940
2149 OM 2149 OM OM1 2149 -0.550000 15.99940
2150 OM 2150 OM OM1 2150 -0.550000 15.99940
2151 OM 2151 OM OM1 2151 -0.550000 15.99940
2152 OM 2152 OM OM1 2152 -0.550000 15.99940
2153 OM 2153 OM OM1 2153 -0.550000 15.99940
2154 OM 2154 OM OM1 2154 -0.550000 15.99940
2155 OM 2155 OM OM1 2155 -0.550000 15.99940
2156 OM 2156 OM OM1 2156 -0.550000 15.99940
2157 OM 2157 OM OM1 2157 -0.550000 15.99940
2158 OM 2158 OM OM1 2158 -0.550000 15.99940
2159 OM 2159 OM OM1 2159 -0.550000 15.99940
2160 OM 2160 OM OM1 2160 -0.550000 15.99940
2161 OM 2161 OM OM1 2161 -0.550000 15.99940
2162 OM 2162 OM OM1 2162 -0.550000 15.99940
2163 OM 2163 OM OM1 2163 -0.550000 15.99940
2164 OM 2164 OM OM1 2164 -0.550000 15.99940
2165 OM 2165 OM OM1 2165 -0.550000 15.99940
2166 OM 2166 OM OM1 2166 -0.550000 15.99940
2167 OM 2167 OM OM1 2167 -0.550000 15.99940
2168 OM 2168 OM OM1 2168 -0.550000 15.99940
2169 OM 2169 OM OM1 2169 -0.550000 15.99940
2170 OM 2170 OM OM1 2170 -0.550000 15.99940
2171 OM 2171 OM OM1 2171 -0.550000 15.99940
2172 OM 2172 OM OM1 2172 -0.550000 15.99940
2173 OM 2173 OM OM1 2173 -0.550000 15.99940
2174 OM 2174 OM OM1 2174 -0.550000 15.99940
2175 OM 2175 OM OM1 2175 -0.550000 15.99940
2176 OM 2176 OM OM1 2176 -0.550000 15.99940
2177 OM 2177 OM OM1 2177 -0.550000 15.99940
2178 OM 2178 OM OM1 2178 -0.550000 15.99940
2179 OM 2179 OM OM1 2179 -0.550000 15.99940
2180 OM 2180 OM OM1 2180 -0.550000 15.99940
2181 OM 2181 OM OM1 2181 -0.550000 15.99940
2182 OM 2182 OM OM1 2182 -0.550000 15.99940
2183 OM 2183 OM OM1 2183 -0.550000 15.99940
2184 OM 2184 OM OM1 2184 -0.550000 15.99940
2185 OM 2185 OM OM1 2185 -0.550000 15.99940
2186 OM 2186 OM OM1 2186 -0.550000 15.99940
2187 OM 2187 OM OM1 2187 -0.550000 15.99940
2188 OM 2188 OM OM1 2188 -0.550000 15.99940
2189 OM 2189 OM OM1 2189 -0.550000 15.99940
2190 OM 2190 OM OM1 2190 -0.550000 15.99940
2191 OM 2191 OM OM1 2191 -0.550000 15.99940
2192 OM 2192 OM OM1 2192 -0.550000 15.99940
2193 OM 2193 OM OM1 2193 -0.550000 15.99940
2194 OM 2194 OM OM1 2194 -0.550000 15.99940
2195 OM 2195 OM OM1 2195 -0.550000 15.99940
2196 OM 2196 OM OM1 2196 -0.550000 15.99940
2197 OM 2197 OM OM1 2197 -0.550000 15.99940
2198 OM 2198 OM OM1 2198 -0.550000 15.99940
2199 OM 2199 OM OM1 2199 -0.550000 15.99940
2200 OM 2200 OM OM1 2200 -0.550000 15.99940
2201 OM 2201 OM OM1 2201 -0.550000 15.99940
2202 OM 2202 OM OM1 2202 -0.550000 15.99940
2203 OM 2203 OM OM1 2203 -0.550000 15.99940
2204 OM 2204 OM OM1 2204 -0.550000 15.99940
2205 OM 2205 OM OM1 2205 -0.550000 15.99940
2206 OM 2206 OM OM1 2206 -0.550000 15.99940
2207 OM 2207 OM OM1 2207 -0.550000 15.99940
2208 OM 2208 OM OM1 2208 -0.550000 15.99940
2209 OM 2209 OM OM1 2209 -0.550000 15.99940
2210 OM 2210 OM OM1 2210 -0.550000 15.99940
2211 OM 2211 OM OM1 2211 -0.550000 15.99940
2212 OM 2212 OM OM1 2212 -0.550000 15.99940
2213 OM 2213 OM OM1 2213 -0.550000 15.99940
2214 OM 2214 OM OM1 2214 -0.550000 15.99940
2215 OM 2215 OM OM1 2215 -0.550000 15.99940
2216 OM 2216 OM OM1 2216 -0.550000 15.99940
2217 OM 2217 OM OM1 2217 -0.550000 15.99940
2218 OM 2218 OM OM1 2218 -0.550000 15.99940
2219 OM 2219 OM OM1 2219 -0.550000 15.99940
2220 OM 2220 OM OM1 2220 -0.550000 15.99940
2221 OM 2221 OM OM1 2221 -0.550000 15.99940
2222 OM 2222 OM OM1 2222 -0.550000 15.99940
2223 OM 2223 OM OM1 2223 -0.550000 15.99940
2224 OM 2224 OM OM1 2224 -0.550000 15.99940
2225 OM 2225 OM OM1 2225 -0.550000 15.99940
2226 OM 2226 OM OM1 2226 -0.550000 15.99940
2227 OM 2227 OM OM1 2227 -0.550000 15.99940
2228 OM 2228 OM OM1 2228 -0.550000 15.99940
2229 OM 2229 OM OM1 2229 -0.550000 15.99940
2230 OM 2230 OM OM1 2230 -0.550000 15.99940
2231 OM 2231 OM OM1 2231 -0.550000 15.99940
2232 OM 2232 OM OM1 2232 -0.550000 15.99940
2233 OM 2233 OM OM1 2233 -0.550000 15.99940
2234 OM 2234 OM OM1 2234 -0.550000 15.99940
2235 OM 2235 OM OM1 2235 -0.550000 15.99940
2236 OM 2236 OM OM1 2236 -0.550000 15.99940
2237 OM 2237 OM OM1 2237 -0.550000 15.99940
2238 OM 2238 OM OM1 2238 -0.550000 15.99940
2239 OM 2239 OM OM1 2239 -0.550000 15.99940
2240 OM 2240 OM OM1 2240 -0.550000 15.99940
2241 OM 2241 OM OM1 2241 -0.550000 15.99940
2242 OM 2242 OM OM1 2242 -0.550000 15.99940
2243 OM 2243 OM OM1 2243 -0.550000 15.99940
2244 OM 2244 OM OM1 2244 -0.550000 15.99940
2245 OM 2245 OM OM1 2245 -0.550000 15.99940
2246 OM 2246 OM OM1 2246 -0.550000 15.99940
2247 OM 2247 OM OM1 2247 -0.550000 15.99940
2248 OM 2248 OM OM1 2248 -0.550000 15.99940
2249 OM 2249 OM OM1 2249 -0.550000 15.99940
2250 OM 2250 OM OM1 2250 -0.550000 15.99940
2251 OM 2251 OM OM1 2251 -0.550000 15.99940
2252 OM 2252 OM OM1 2252 -0.550000 15.99940
2253 OM 2253 OM OM1 2253 -0.550000 15.99940
2254 OM 2254 OM OM1 2254 -0.550000 15.99940
2255 OM 2255 OM OM1 2255 -0.550000 15.99940
2256 OM 2256 OM OM1 2256 -0.550000 15.99940
2257 OM 2257 OM OM1 2257 -0.550000 15.99940
2258 OM 2258 OM OM1 2258 -0.550000 15.99940
2259 OM 2259 OM OM1 2259 -0.550000 15.99940
2260 OM 2260 OM OM1 2260 -0.550000 15.99940
2261 OM 2261 OM OM1 2261 -0.550000 15.99940
2262 OM 2262 OM OM1 2262 -0.550000 15.99940
2263 OM 2263 OM OM1 2263 -0.550000 15.99940
2264 OM 2264 OM OM1 2264 -0.550000 15.99940
2265 OM 2265 OM OM1 2265 -0.550000 15.99940
2266 OM 2266 OM OM1 2266 -0.550000 15.99940
2267 OM 2267 OM OM1 2267 -0.550000 15.99940
2268 OM 2268 OM OM1 2268 -0.550000 15.99940
2269 OM 2269 OM OM1 2269 -0.550000 15.99940
2270 OM 2270 OM OM1 2270 -0.550000 15.99940
2271 OM 2271 OM OM1 2271 -0.550000 15.99940
2272 OM 2272 OM OM1 2272 -0.550000 15.99940
2273 OM 2273 OM OM1 2273 -0.550000 15.99940
2274 OM 2274 OM OM1 2274 -0.550000 15.99940
2275 OM 2275 OM OM1 2275 -0.550000 15.99940
2276 OM 2276 OM OM1 2276 -0.550000 15.99940
2277 OM 2277 OM OM1 2277 -0.550000 15.99940
2278 OM 2278 OM OM1 2278 -0.550000 15.99940
2279 OM 2279 OM OM1 2279 -0.550000 15.99940
2280 OM 2280 OM OM1 2280 -0.550000 15.99940
2281 OM 2281 OM OM1 2281 -0.550000 15.99940
2282 OM 2282 OM OM1 2282 -0.550000 15.99940
2283 OM 2283 OM OM1 2283 -0.550000 15.99940
2284 OM 2284 OM OM1 2284 -0.550000 15.99940
2285 OM 2285 OM OM1 2285 -0.550000 15.99940
2286 OM 2286 OM OM1 2286 -0.550000 15.99940
2287 OM 2287 OM OM1 2287 -0.550000 15.99940
2288 OM 2288 OM OM1 2288 -0.550000 15.99940
2289 OM 2289 OM OM1 2289 -0.550000 15.99940
2290 OM 2290 OM OM1 2290 -0.550000 15.99940
2291 OM 2291 OM OM1 2291 -0.550000 15.99940
2292 OM 2292 OM OM1 2292 -0.550000 15.99940
2293 OM 2293 OM OM1 2293 -0.550000 15.99940
2294 OM 2294 OM OM1 2294 -0.550000 15.99940
2295 OM 2295 OM OM1 2295 -0.550000 15.99940
2296 OM 2296 OM OM1 2296 -0.550000 15.99940
2297 OM 2297 OM OM1 2297 -0.550000 15.99940
2298 OM 2298 OM OM1 2298 -0.550000 15.99940
2299 OM 2299 OM OM1 2299 -0.550000 15.99940
2300 OM 2300 OM OM1 2300 -0.550000 15.99940
2301 OM 2301 OM OM1 2301 -0.550000 15.99940
2302 OM 2302 OM OM1 2302 -0.550000 15.99940
2303 OM 2303 OM OM1 2303 -0.550000 15.99940
2304 OM 2304 OM OM1 2304 -0.550000 15.99940
2305 OM 2305 OM OM1 2305 -0.550000 15.99940
2306 OM 2306 OM OM1 2306 -0.550000 15.99940
2307 OM 2307 OM OM1 2307 -0.550000 15.99940
2308 OM 2308 OM OM1 2308 -0.550000 15.99940
2309 OM 2309 OM OM1 2309 -0.550000 15.99940
2310 OM 2310 OM OM1 2310 -0.550000 15.99940
2311 OM 2311 OM OM1 2311 -0.550000 15.99940
2312 OM 2312 OM OM1 2312 -0.550000 15.99940
2313 OM 2313 OM OM1 2313 -0.550000 15.99940
2314 OM 2314 OM OM1 2314 -0.550000 15.99940
2315 OM 2315 OM OM1 2315 -0.550000 15.99940
2316 OM 2316 OM OM1 2316 -0.550000 15.99940
2317 OM 2317 OM OM1 2317 -0.550000 15.99940
2318 OM 2318 OM OM1 2318 -0.550000 15.99940
2319 OM 2319 OM OM1 2319 -0.550000 15.99940
2320 OM 2320 OM OM1 2320 -0.550000 15.99940
2321 OM 2321 OM OM1 2321 -0.550000 15.99940
2322 OM 2322 OM OM1 2322 -0.550000 15.99940
2323 OM 2323 OM OM1 2323 -0.550000 15.99940
2324 OM 2324 OM OM1 2324 -0.550000 15.99940
2325 OM 2325 OM OM1 2325 -0.550000 15.99940
2326 OM 2326 OM OM1 2326 -0.550000 15.99940
2327 OM 2327 OM OM1 2327 -0.550000 15.99940
2328 OM 2328 OM OM1 2328 -0.550000 15.99940
2329 OM 2329 OM OM1 2329 -0.550000 15.99940
2330 OM 2330 OM OM1 2330 -0.550000 15.99940
2331 OM 2331 OM OM1 2331 -0.550000 15.99940
2332 OM 2332 OM OM1 2332 -0.550000 15.99940
2333 OM 2333 OM OM1 2333 -0.550000 15.99940
2334 OM 2334 OM OM1 2334 -0.550000 15.99940
2335 OM 2335 OM OM1 2335 -0.550000 15.99940
2336 OM 2336 OM OM1 2336 -0.550000 15.99940
2337 OM 2337 OM OM1 2337 -0.550000 15.99940
2338 OM 2338 OM OM1 2338 -0.550000 15.99940
2339 OM 2339 OM OM1 2339 -0.550000 15.99940
2340 OM 2340 OM OM1 2340 -0.550000 15.99940
2341 OM 2341 OM OM1 2341 -0.550000 15.99940
2342 OM 2342 OM OM1 2342 -0.550000 15.99940
2343 OM 2343 OM OM1 2343 -0.550000 15.99940
2344 OM 2344 OM OM1 2344 -0.550000 15.99940
2345 OM 2345 OM OM1 2345 -0.550000 15.99940
2346 OM 2346 OM OM1 2346 -0.550000 15.99940
2347 OM 2347 OM OM1 2347 -0.550000 15.99940
2348 OM 2348 OM OM1 2348 -0.550000 15.99940
2349 OM 2349 OM OM1 2349 -0.550000 15.99940
2350 OM 2350 OM OM1 2350 -0.550000 15.99940
2351 OM 2351 OM OM1 2351 -0.550000 15.99940
2352 OM 2352 OM OM1 2352 -0.550000 15.99940
2353 OM 2353 OM OM1 2353 -0.550000 15.99940
2354 OM 2354 OM OM1 2354 -0.550000 15.99940
2355 OM 2355 OM OM1 2355 -0.550000 15.99940
2356 OM 2356 OM OM1 2356 -0.550000 15.99940
2357 OM 2357 OM OM1 2357 -0.550000 15.99940
2358 OM 2358 OM OM1 2358 -0.550000 15.99940
2359 OM 2359 OM OM1 2359 -0.550000 15.99940
2360 OM 2360 OM OM1 2360 -0.550000 15.99940
2361 OM 2361 OM OM1 2361 -0.550000 15.99940
2362 OM 2362 OM OM1 2362 -0.550000 15.99940
2363 OM 2363 OM OM1 2363 -0.550000 15.99940
2364 OM 2364 OM OM1 2364 -0.550000 15.99940
2365 OM 2365 OM OM1 2365 -0.550000 15.99940
2366 OM 2366 OM OM1 2366 -0.550000 15.99940
2367 OM 2367 OM OM1 2367 -0.550000 15.99940
2368 OM 2368 OM OM1 2368 -0.550000 15.99940
2369 OM 2369 OM OM1 2369 -0.550000 15.99940
2370 OM 2370 OM OM1 2370 -0.550000 15.99940
2371 OM 2371 OM OM1 2371 -0.550000 15.99940
2372 OM 2372 OM OM1 2372 -0.550000 15.99940
2373 OM 2373 OM OM1 2373 -0.550000 15.99940
2374 OM 2374 OM OM1 2374 -0.550000 15.99940
2375 OM 2375 OM OM1 2375 -0.550000 15.99940
2376 OM 2376 OM OM1 2376 -0.550000 15.99940
2377 OM 2377 OM OM1 2377 -0.550000 15.99940
2378 OM 2378 OM OM1 2378 -0.550000 15.99940
2379 OM 2379 OM OM1 2379 -0.550000 15.99940
2380 OM 2380 OM OM1 2380 -0.550000 15.99940
2381 OM 2381 OM OM1 2381 -0.550000 15.99940
2382 OM 2382 OM OM1 2382 -0.550000 15.99940
2383 OM 2383 OM OM1 2383 -0.550000 15.99940
2384 OM 2384 OM OM1 2384 -0.550000 15.99940
2385 OM 2385 OM OM1 2385 -0.550000 15.99940
2386 OM 2386 OM OM1 2386 -0.550000 15.99940
2387 OM 2387 OM OM1 2387 -0.550000 15.99940
2388 OM 2388 OM OM1 2388 -0.550000 15.99940
2389 OM 2389 OM OM1 2389 -0.550000 15.99940
2390 OM 2390 OM OM1 2390 -0.550000 15.99940
2391 OM 2391 OM OM1 2391 -0.550000 15.99940
2392 OM 2392 OM OM1 2392 -0.550000 15.99940
2393 OM 2393 OM OM1 2393 -0.550000 15.99940
2394 OM 2394 OM OM1 2394 -0.550000 15.99940
2395 OM 2395 OM OM1 2395 -0.550000 15.99940
2396 OM 2396 OM OM1 2396 -0.550000 15.99940
2397 OM 2397 OM OM1 2397 -0.550000 15.99940
2398 OM 2398 OM OM1 2398 -0.550000 15.99940
2399 OM 2399 OM OM1 2399 -0.550000 15.99940
2400 OM 2400 OM OM1 2400 -0.550000 15.99940
2401 OM 2401 OM OM1 2401 -0.550000 15.99940
2402 OM 2402 OM OM1 2402 -0.550000 15.99940
2403 OM 2403 OM OM1 2403 -0.550000 15.99940
2404 OM 2404 OM OM1 2404 -0.550000 15.99940
2405 OM 2405 OM OM1 2405 -0.550000 15.99940
2406 OM 2406 OM OM1 2406 -0.550000 15.99940
2407 OM 2407 OM OM1 2407 -0.550000 15.99940
2408 OM 2408 OM OM1 2408 -0.550000 15.99940
2409 OM 2409 OM OM1 2409 -0.550000 15.99940
2410 OM 2410 OM OM1 2410 -0.550000 15.99940
2411 OM 2411 OM OM1 2411 -0.550000 15.99940
2412 OM 2412 OM OM1 2412 -0.550000 15.99940
2413 OM 2413 OM OM1 2413 -0.550000 15.99940
2414 OM 2414 OM OM1 2414 -0.550000 15.99940
2415 OM 2415 OM OM1 2415 -0.550000 15.99940
2416 OM 2416 OM OM1 2416 -0.550000 15.99940
2417 OM 2417 OM OM1 2417 -0.550000 15.99940
2418 OM 2418 OM OM1 2418 -0.550000 15.99940
2419 OM 2419 OM OM1 2419 -0.550000 15.99940
2420 OM 2420 OM OM1 2420 -0.550000 15.99940
2421 OM 2421 OM OM1 2421 -0.550000 15.99940
2422 OM 2422 OM OM1 2422 -0.550000 15.99940
2423 OM 2423 OM OM1 2423 -0.550000 15.99940
2424 OM 2424 OM OM1 2424 -0.550000 15.99940
2425 OM 2425 OM OM1 2425 -0.550000 15.99940
2426 OM 2426 OM OM1 2426 -0.550000 15.99940
2427 OM 2427 OM OM1 2427 -0.550000 15.99940
2428 OM 2428 OM OM1 2428 -0.550000 15.99940
2429 OM 2429 OM OM1 2429 -0.550000 15.99940
2430 OM 2430 OM OM1 2430 -0.550000 15.99940
2431 OM 2431 OM OM1 2431 -0.550000 15.99940
2432 OM 2432 OM OM1 2432 -0.550000 15.99940
2433 OM 2433 OM OM1 2433 -0.550000 15.99940
2434 OM 2434 OM OM1 2434 -0.550000 15.99940
2435 OM 2435 OM OM1 2435 -0.550000 15.99940
2436 OM 2436 OM OM1 2436 -0.550000 15.99940
2437 OM 2437 OM OM1 2437 -0.550000 15.99940
2438 OM 2438 OM OM1 2438 -0.550000 15.99940
2439 OM 2439 OM OM1 2439 -0.550000 15.99940
2440 OM 2440 OM OM1 2440 -0.550000 15.99940
2441 OM 2441 OM OM1 2441 -0.550000 15.99940
2442 OM 2442 OM OM1 2442 -0.550000 15.99940
2443 OM 2443 OM OM1 2443 -0.550000 15.99940
2444 OM 2444 OM OM1 2444 -0.550000 15.99940
2445 OM 2445 OM OM1 2445 -0.550000 15.99940
2446 OM 2446 OM OM1 2446 -0.550000 15.99940
2447 OM 2447 OM OM1 2447 -0.550000 15.99940
2448 OM 2448 OM OM1 2448 -0.550000 15.99940
2449 OM 2449 OM OM1 2449 -0.550000 15.99940
2450 OM 2450 OM OM1 2450 -0.550000 15.99940
2451 OM 2451 OM OM1 2451 -0.550000 15.99940
2452 OM 2452 OM OM1 2452 -0.550000 15.99940
2453 OM 2453 OM OM1 2453 -0.550000 15.99940
2454 OM 2454 OM OM1 2454 -0.550000 15.99940
2455 OM 2455 OM OM1 2455 -0.550000 15.99940
2456 OM 2456 OM OM1 2456 -0.550000 15.99940
2457 OM 2457 OM OM1 2457 -0.550000 15.99940
2458 OM 2458 OM OM1 2458 -0.550000 15.99940
2459 OM 2459 OM OM1 2459 -0.550000 15.99940
2460 OM 2460 OM OM1 2460 -0.550000 15.99940
2461 OM 2461 OM OM1 2461 -0.550000 15.99940
2462 OM 2462 OM OM1 2462 -0.550000 15.99940
2463 OM 2463 OM OM1 2463 -0.550000 15.99940
2464 OM 2464 OM OM1 2464 -0.550000 15.99940
2465 OM 2465 OM OM1 2465 -0.550000 15.99940
2466 OM 2466 OM OM1 2466 -0.550000 15.99940
2467 OM 2467 OM OM1 2467 -0.550000 15.99940
2468 OM 2468 OM OM1 2468 -0.550000 15.99940
2469 OM 2469 OM OM1 2469 -0.550000 15.99940
2470 OM 2470 OM OM1 2470 -0.550000 15.99940
2471 OM 2471 OM OM1 2471 -0.550000 15.99940
2472 OM 2472 OM OM1 2472 -0.550000 15.99940
2473 OM 2473 OM OM1 2473 -0.550000 15.99940
2474 OM 2474 OM OM1 2474 -0.550000 15.99940
2475 OM 2475 OM OM1 2475 -0.550000 15.99940
2476 OM 2476 OM OM1 2476 -0.550000 15.99940
2477 OM 2477 OM OM1 2477 -0.550000 15.99940
2478 OM 2478 OM OM1 2478 -0.550000 15.99940
2479 OM 2479 OM OM1 2479 -0.550000 15.99940
2480 OM 2480 OM OM1 2480 -0.550000 15.99940
2481 OM 2481 OM OM1 2481 -0.550000 15.99940
2482 OM 2482 OM OM1 2482 -0.550000 15.99940
2483 OM 2483 OM OM1 2483 -0.550000 15.99940
2484 OM 2484 OM OM1 2484 -0.550000 15.99940
2485 OM 2485 OM OM1 2485 -0.550000 15.99940
2486 OM 2486 OM OM1 2486 -0.550000 15.99940
2487 OM 2487 OM OM1 2487 -0.550000 15.99940
2488 OM 2488 OM OM1 2488 -0.550000 15.99940
2489 OM 2489 OM OM1 2489 -0.550000 15.99940
2490 OM 2490 OM OM1 2490 -0.550000 15.99940
2491 OM 2491 OM OM1 2491 -0.550000 15.99940
2492 OM 2492 OM OM1 2492 -0.550000 15.99940
2493 OM 2493 OM OM1 2493 -0.550000 15.99940
2494 OM 2494 OM OM1 2494 -0.550000 15.99940
2495 OM 2495 OM OM1 2495 -0.550000 15.99940
2496 OM 2496 OM OM1 2496 -0.550000 15.99940
2497 OM 2497 OM OM1 2497 -0.550000 15.99940
2498 OM 2498 OM OM1 2498 -0.550000 15.99940
2499 OM 2499 OM OM1 2499 -0.550000 15.99940
2500 OM 2500 OM OM1 2500 -0.550000 15.99940
2501 OM 2501 OM OM1 2501 -0.550000 15.99940
2502 OM 2502 OM OM1 2502 -0.550000 15.99940
2503 OM 2503 OM OM1 2503 -0.550000 15.99940
2504 OM 2504 OM OM1 2504 -0.550000 15.99940
2505 OM 2505 OM OM1 2505 -0.550000 15.99940
2506 OM 2506 OM OM1 2506 -0.550000 15.99940
2507 OM 2507 OM OM1 2507 -0.550000 15.99940
2508 OM 2508 OM OM1 2508 -0.550000 15.99940
2509 OM 2509 OM OM1 2509 -0.550000 15.99940
2510 OM 2510 OM OM1 2510 -0.550000 15.99940
2511 OM 2511 OM OM1 2511 -0.550000 15.99940
2512 OM 2512 OM OM1 2512 -0.550000 15.99940
2513 OM 2513 OM OM1 2513 -0.550000 15.99940
2514 OM 2514 OM OM1 2514 -0.550000 15.99940
2515 OM 2515 OM OM1 2515 -0.550000 15.99940
2516 OM 2516 OM OM1 2516 -0.550000 15.99940
2517 OM 2517 OM OM1 2517 -0.550000 15.99940
2518 OM 2518 OM OM1 2518 -0.550000 15.99940
2519 OM 2519 OM OM1 2519 -0.550000 15.99940
2520 OM 2520 OM OM1 2520 -0.550000 15.99940
2521 OM 2521 OM OM1 2521 -0.550000 15.99940
2522 OM 2522 OM OM1 2522 -0.550000 15.99940
2523 OM 2523 OM OM1 2523 -0.550000 15.99940
2524 OM 2524 OM OM1 2524 -0.550000 15.99940
2525 OM 2525 OM OM1 2525 -0.550000 15.99940
2526 OM 2526 OM OM1 2526 -0.550000 15.99940
2527 OM 2527 OM OM1 2527 -0.550000 15.99940
2528 OM 2528 OM OM1 2528 -0.550000 15.99940
2529 OM 2529 OM OM1 2529 -0.550000 15.99940
2530 OM 2530 OM OM1 2530 -0.550000 15.99940
2531 OM 2531 OM OM1 2531 -0.550000 15.99940
2532 OM 2532 OM OM1 2532 -0.550000 15.99940
2533 OM 2533 OM OM1 2533 -0.550000 15.99940
2534 OM 2534 OM OM1 2534 -0.550000 15.99940
2535 OM 2535 OM OM1 2535 -0.550000 15.99940
2536 OM 2536 OM OM1 2536 -0.550000 15.99940
2537 OM 2537 OM OM1 2537 -0.550000 15.99940
2538 OM 2538 OM OM1 2538 -0.550000 15.99940
2539 OM 2539 OM OM1 2539 -0.550000 15.99940
2540 OM 2540 OM OM1 2540 -0.550000 15.99940
2541 OM 2541 OM OM1 2541 -0.550000 15.99940
2542 OM 2542 OM OM1 2542 -0.550000 15.99940
2543 OM 2543 OM OM1 2543 -0.550000 15.99940
2544 OM 2544 OM OM1 2544 -0.550000 15.99940
2545 OM 2545 OM OM1 2545 -0.550000 15.99940
2546 OM 2546 OM OM1 2546 -0.550000 15.99940
2547 OM 2547 OM OM1 2547 -0.550000 15.99940
2548 OM 2548 OM OM1 2548 -0.550000 15.99940
2549 OM 2549 OM OM1 2549 -0.550000 15.99940
2550 OM 2550 OM OM1 2550 -0.550000 15.99940
2551 OM 2551 OM OM1 2551 -0.550000 15.99940
2552 OM 2552 OM OM1 2552 -0.550000 15.99940
2553 OM 2553 OM OM1 2553 -0.550000 15.99940
2554 OM 2554 OM OM1 2554 -0.550000 15.99940
2555 OM 2555 OM OM1 2555 -0.550000 15.99940
2556 OM 2556 OM OM1 2556 -0.550000 15.99940
2557 OM 2557 OM OM1 2557 -0.550000 15.99940
2558 OM 2558 OM OM1 2558 -0.550000 15.99940
2559 OM 2559 OM OM1 2559 -0.550000 15.99940
2560 OM 2560 OM OM1 2560 -0.550000 15.99940
2561 OM 2561 OM OM1 2561 -0.550000 15.99940
2562 OM 2562 OM OM1 2562 -0.550000 15.99940
2563 OM 2563 OM OM1 2563 -0.550000 15.99940
2564 OM 2564 OM OM1 2564 -0.550000 15.99940
2565 OM 2565 OM OM1 2565 -0.550000 15.99940
2566 OM 2566 OM OM1 2566 -0.550000 15.99940
2567 OM 2567 OM OM1 2567 -0.550000 15.99940
2568 OM 2568 OM OM1 2568 -0.550000 15.99940
2569 OM 2569 OM OM1 2569 -0.550000 15.99940
2570 OM 2570 OM OM1 2570 -0.550000 15.99940
2571 OM 2571 OM OM1 2571 -0.550000 15.99940
2572 OM 2572 OM OM1 2572 -0.550000 15.99940
2573 OM 2573 OM OM1 2573 -0.550000 15.99940
2574 OM 2574 OM OM1 2574 -0.550000 15.99940
2575 OM 2575 OM OM1 2575 -0.550000 15.99940
2576 OM 2576 OM OM1 2576 -0.550000 15.99940
2577 OM 2577 OM OM1 2577 -0.550000 15.99940
2578 OM 2578 OM OM1 2578 -0.550000 15.99940
2579 OM 2579 OM OM1 2579 -0.550000 15.99940
2580 OM 2580 OM OM1 2580 -0.550000 15.99940
2581 OM 2581 OM OM1 2581 -0.550000 15.99940
2582 OM 2582 OM OM1 2582 -0.550000 15.99940
2583 OM 2583 OM OM1 2583 -0.550000 15.99940
2584 OM 2584 OM OM1 2584 -0.550000 15.99940
2585 OM 2585 OM OM1 2585 -0.550000 15.99940
2586 OM 2586 OM OM1 2586 -0.550000 15.99940
2587 OM 2587 OM OM1 2587 -0.550000 15.99940
2588 OM 2588 OM OM1 2588 -0.550000 15.99940
2589 OM 2589 OM OM1 2589 -0.550000 15.99940
2590 OM 2590 OM OM1 2590 -0.550000 15.99940
2591 OM 2591 OM OM1 2591 -0.550000 15.99940
2592 OM 2592 OM OM1 2592 -0.550000 15.99940
2593 OM 2593 OM OM1 2593 -0.550000 15.99940
2594 OM 2594 OM OM1 2594 -0.550000 15.99940
2595 OM 2595 OM OM1 2595 -0.550000 15.99940
2596 OM 2596 OM OM1 2596 -0.550000 15.99940
2597 OM 2597 OM OM1 2597 -0.550000 15.99940
2598 OM 2598 OM OM1 2598 -0.550000 15.99940
2599 OM 2599 OM OM1 2599 -0.550000 15.99940
2600 OM 2600 OM OM1 2600 -0.550000 15.99940
2601 OM 2601 OM OM1 2601 -0.550000 15.99940
2602 OM 2602 OM OM1 2602 -0.550000 15.99940
2603 OM 2603 OM OM1 2603 -0.550000 15.99940
2604 OM 2604 OM OM1 2604 -0.550000 15.99940
2605 OM 2605 OM OM1 2605 -0.550000 15.99940
2606 OM 2606 OM OM1 2606 -0.550000 15.99940
2607 OM 2607 OM OM1 2607 -0.550000 15.99940
2608 OM 2608 OM OM1 2608 -0.550000 15.99940
2609 OM 2609 OM OM1 2609 -0.550000 15.99940
2610 OM 2610 OM OM1 2610 -0.550000 15.99940
2611 OM 2611 OM OM1 2611 -0.550000 15.99940
2612 OM 2612 OM OM1 2612 -0.550000 15.99940
2613 OM 2613 OM OM1 2613 -0.550000 15.99940
2614 OM 2614 OM OM1 2614 -0.550000 15.99940
2615 OM 2615 OM OM1 2615 -0.550000 15.99940
2616 OM 2616 OM OM1 2616 -0.550000 15.99940
2617 OM 2617 OM OM1 2617 -0.550000 15.99940
2618 OM 2618 OM OM1 2618 -0.550000 15.99940
2619 OM 2619 OM OM1 2619 -0.550000 15.99940
2620 OM 2620 OM OM1 2620 -0.550000 15.99940
2621 OM 2621 OM OM1 2621 -0.550000 15.99940
2622 OM 2622 OM OM1 2622 -0.550000 15.99940
2623 OM 2623 OM OM1 2623 -0.550000 15.99940
2624 OM 2624 OM OM1 2624 -0.550000 15.99940
2625 OM 2625 OM OM1 2625 -0.550000 15.99940
2626 OM 2626 OM OM1 2626 -0.550000 15.99940
2627 OM 2627 OM OM1 2627 -0.550000 15.99940
2628 OM 2628 OM OM1 2628 -0.550000 15.99940
2629 OM 2629 OM OM1 2629 -0.550000 15.99940
2630 OM 2630 OM OM1 2630 -0.550000 15.99940
2631 OM 2631 OM OM1 2631 -0.550000 15.99940
2632 OM 2632 OM OM1 2632 -0.550000 15.99940
2633 OM 2633 OM OM1 2633 -0.550000 15.99940
2634 OM 2634 OM OM1 2634 -0.550000 15.99940
2635 OM 2635 OM OM1 2635 -0.550000 15.99940
2636 OM 2636 OM OM1 2636 -0.550000 15.99940
2637 OM 2637 OM OM1 2637 -0.550000 15.99940
2638 OM 2638 OM OM1 2638 -0.550000 15.99940
2639 OM 2639 OM OM1 2639 -0.550000 15.99940
2640 OM 2640 OM OM1 2640 -0.550000 15.99940
2641 OM 2641 OM OM1 2641 -0.550000 15.99940
2642 OM 2642 OM OM1 2642 -0.550000 15.99940
2643 OM 2643 OM OM1 2643 -0.550000 15.99940
2644 OM 2644 OM OM1 2644 -0.550000 15.99940
2645 OM 2645 OM OM1 2645 -0.550000 15.99940
2646 OM 2646 OM OM1 2646 -0.550000 15.99940
2647 OM 2647 OM OM1 2647 -0.550000 15.99940
2648 OM 2648 OM OM1 2648 -0.550000 15.99940
2649 OM 2649 OM OM1 2649 -0.550000 15.99940
2650 OM 2650 OM OM1 2650 -0.550000 15.99940
2651 OM 2651 OM OM1 2651 -0.550000 15.99940
2652 OM 2652 OM OM1 2652 -0.550000 15.99940
2653 OM 2653 OM OM1 2653 -0.550000 15.99940
2654 OM 2654 OM OM1 2654 -0.550000 15.99940
2655 OM 2655 OM OM1 2655 -0.550000 15.99940
2656 OM 2656 OM OM1 2656 -0.550000 15.99940
2657 OM 2657 OM OM1 2657 -0.550000 15.99940
2658 OM 2658 OM OM1 2658 -0.550000 15.99940
2659 OM 2659 OM OM1 2659 -0.550000 15.99940
2660 OM 2660 OM OM1 2660 -0.550000 15.99940
2661 OM 2661 OM OM1 2661 -0.550000 15.99940
2662 OM 2662 OM OM1 2662 -0.550000 15.99940
2663 OM 2663 OM OM1 2663 -0.550000 15.99940
2664 OM 2664 OM OM1 2664 -0.550000 15.99940
2665 OM 2665 OM OM1 2665 -0.550000 15.99940
2666 OM 2666 OM OM1 2666 -0.550000 15.99940
2667 OM 2667 OM OM1 2667 -0.550000 15.99940
2668 OM 2668 OM OM1 2668 -0.550000 15.99940
2669 OM 2669 OM OM1 2669 -0.550000 15.99940
2670 OM 2670 OM OM1 2670 -0.550000 15.99940
2671 OM 2671 OM OM1 2671 -0.550000 15.99940
2672 OM 2672 OM OM1 2672 -0.550000 15.99940
2673 OM 2673 OM OM1 2673 -0.550000 15.99940
2674 OM 2674 OM OM1 2674 -0.550000 15.99940
2675 OM 2675 OM OM1 2675 -0.550000 15.99940
2676 OM 2676 OM OM1 2676 -0.550000 15.99940
2677 OM 2677 OM OM1 2677 -0.550000 15.99940
2678 OM 2678 OM OM1 2678 -0.550000 15.99940
2679 OM 2679 OM OM1 2679 -0.550000 15.99940
2680 OM 2680 OM OM1 2680 -0.550000 15.99940
2681 OM 2681 OM OM1 2681 -0.550000 15.99940
2682 OM 2682 OM OM1 2682 -0.550000 15.99940
2683 OM 2683 OM OM1 2683 -0.550000 15.99940
2684 OM 2684 OM OM1 2684 -0.550000 15.99940
2685 OM 2685 OM OM1 2685 -0.550000 15.99940
2686 OM 2686 OM OM1 2686 -0.550000 15.99940
2687 OM 2687 OM OM1 2687 -0.550000 15.99940
2688 OM 2688 OM OM1 2688 -0.550000 15.99940
2689 OM 2689 OM OM1 2689 -0.550000 15.99940
2690 OM 2690 OM OM1 2690 -0.550000 15.99940
2691 OM 2691 OM OM1 2691 -0.550000 15.99940
2692 OM 2692 OM OM1 2692 -0.550000 15.99940
2693 OM 2693 OM OM1 2693 -0.550000 15.99940
2694 OM 2694 OM OM1 2694 -0.550000 15.99940
2695 OM 2695 OM OM1 2695 -0.550000 15.99940
2696 OM 2696 OM OM1 2696 -0.550000 15.99940
2697 OM 2697 OM OM1 2697 -0.550000 15.99940
2698 OM 2698 OM OM1 2698 -0.550000 15.99940
2699 OM 2699 OM OM1 2699 -0.550000 15.99940
2700 OM 2700 OM OM1 2700 -0.550000 15.99940
2701 OM 2701 OM OM1 2701 -0.550000 15.99940
2702 OM 2702 OM OM1 2702 -0.550000 15.99940
2703 OM 2703 OM OM1 2703 -0.550000 15.99940
2704 OM 2704 OM OM1 2704 -0.550000 15.99940
2705 OM 2705 OM OM1 2705 -0.550000 15.99940
2706 OM 2706 OM OM1 2706 -0.550000 15.99940
2707 OM 2707 OM OM1 2707 -0.550000 15.99940
2708 OM 2708 OM OM1 2708 -0.550000 15.99940
2709 OM 2709 OM OM1 2709 -0.550000 15.99940
2710 OM 2710 OM OM1 2710 -0.550000 15.99940
2711 OM 2711 OM OM1 2711 -0.550000 15.99940
2712 OM 2712 OM OM1 2712 -0.550000 15.99940
2713 OM 2713 OM OM1 2713 -0.550000 15.99940
2714 OM 2714 OM OM1 2714 -0.550000 15.99940
2715 OM 2715 OM OM1 2715 -0.550000 15.99940
2716 OM 2716 OM OM1 2716 -0.550000 15.99940
2717 OM 2717 OM OM1 2717 -0.550000 15.99940
2718 OM 2718 OM OM1 2718 -0.550000 15.99940
2719 OM 2719 OM OM1 2719 -0.550000 15.99940
2720 OM 2720 OM OM1 2720 -0.550000 15.99940
2721 OM 2721 OM OM1 2721 -0.550000 15.99940
2722 OM 2722 OM OM1 2722 -0.550000 15.99940
2723 OM 2723 OM OM1 2723 -0.550000 15.99940
2724 OM 2724 OM OM1 2724 -0.550000 15.99940
2725 OM 2725 OM OM1 2725 -0.550000 15.99940
2726 OM 2726 OM OM1 2726 -0.550000 15.99940
2727 OM 2727 OM OM1 2727 -0.550000 15.99940
2728 OM 2728 OM OM1 2728 -0.550000 15.99940
2729 OM 2729 OM OM1 2729 -0.550000 15.99940
2730 OM 2730 OM OM1 2730 -0.550000 15.99940
2731 OM 2731 OM OM1 2731 -0.550000 15.99940
2732 OM 2732 OM OM1 2732 -0.550000 15.99940
2733 OM 2733 OM OM1 2733 -0.550000 15.99940
2734 OM 2734 OM OM1 2734 -0.550000 15.99940
2735 OM 2735 OM OM1 2735 -0.550000 15.99940
2736 OM 2736 OM OM1 2736 -0.550000 15.99940
2737 OM 2737 OM OM1 2737 -0.550000 15.99940
2738 OM 2738 OM OM1 2738 -0.550000 15.99940
2739 OM 2739 OM OM1 2739 -0.550000 15.99940
2740 OM 2740 OM OM1 2740 -0.550000 15.99940
2741 OM 2741 OM OM1 2741 -0.550000 15.99940
2742 OM 2742 OM OM1 2742 -0.550000 15.99940
2743 OM 2743 OM OM1 2743 -0.550000 15.99940
2744 OM 2744 OM OM1 2744 -0.550000 15.99940
2745 OM 2745 OM OM1 2745 -0.550000 15.99940
2746 OM 2746 OM OM1 2746 -0.550000 15.99940
2747 OM 2747 OM OM1 2747 -0.550000 15.99940
2748 OM 2748 OM OM1 2748 -0.550000 15.99940
2749 OM 2749 OM OM1 2749 -0.550000 15.99940
2750 OM 2750 OM OM1 2750 -0.550000 15.99940
2751 OM 2751 OM OM1 2751 -0.550000 15.99940
2752 OM 2752 OM OM1 2752 -0.550000 15.99940
2753 OM 2753 OM OM1 2753 -0.550000 15.99940
2754 OM 2754 OM OM1 2754 -0.550000 15.99940
2755 OM 2755 OM OM1 2755 -0.550000 15.99940
2756 OM 2756 OM OM1 2756 -0.550000 15.99940
2757 OM 2757 OM OM1 2757 -0.550000 15.99940
2758 OM 2758 OM OM1 2758 -0.550000 15.99940
2759 OM 2759 OM OM1 2759 -0.550000 15.99940
2760 OM 2760 OM OM1 2760 -0.550000 15.99940
2761 OM 2761 OM OM1 2761 -0.550000 15.99940
2762 OM 2762 OM OM1 2762 -0.550000 15.99940
2763 OM 2763 OM OM1 2763 -0.550000 15.99940
2764 OM 2764 OM OM1 2764 -0.550000 15.99940
2765 OM 2765 OM OM1 2765 -0.550000 15.99940
2766 OM 2766 OM OM1 2766 -0.550000 15.99940
2767 OM 2767 OM OM1 2767 -0.550000 15.99940
2768 OM 2768 OM OM1 2768 -0.550000 15.99940
2769 OM 2769 OM OM1 2769 -0.550000 15.99940
2770 OM 2770 OM OM1 2770 -0.550000 15.99940
2771 OM 2771 OM OM1 2771 -0.550000 15.99940
2772 OM 2772 OM OM1 2772 -0.550000 15.99940
2773 OM 2773 OM OM1 2773 -0.550000 15.99940
2774 OM 2774 OM OM1 2774 -0.550000 15.99940
2775 OM 2775 OM OM1 2775 -0.550000 15.99940
2776 OM 2776 OM OM1 2776 -0.550000 15.99940
2777 OM 2777 OM OM1 2777 -0.550000 15.99940
2778 OM 2778 OM OM1 2778 -0.550000 15.99940
2779 OM 2779 OM OM1 2779 -0.550000 15.99940
2780 OM 2780 OM OM1 2780 -0.550000 15.99940
2781 OM 2781 OM OM1 2781 -0.550000 15.99940
2782 OM 2782 OM OM1 2782 -0.550000 15.99940
2783 OM 2783 OM OM1 2783 -0.550000 15.99940
2784 OM 2784 OM OM1 2784 -0.550000 15.99940
2785 OM 2785 OM OM1 2785 -0.550000 15.99940
2786 OM 2786 OM OM1 2786 -0.550000 15.99940
2787 OM 2787 OM OM1 2787 -0.550000 15.99940
2788 OM 2788 OM OM1 2788 -0.550000 15.99940
2789 OM 2789 OM OM1 2789 -0.550000 15.99940
2790 OM 2790 OM OM1 2790 -0.550000 15.99940
2791 OM 2791 OM OM1 2791 -0.550000 15.99940
2792 OM 2792 OM OM1 2792 -0.550000 15.99940
2793 OM 2793 OM OM1 2793 -0.550000 15.99940
2794 OM 2794 OM OM1 2794 -0.550000 15.99940
2795 OM 2795 OM OM1 2795 -0.550000 15.99940
2796 OM 2796 OM OM1 2796 -0.550000 15.99940
2797 OM 2797 OM OM1 2797 -0.550000 15.99940
2798 OM 2798 OM OM1 2798 -0.550000 15.99940
2799 OM 2799 OM OM1 2799 -0.550000 15.99940
2800 OM 2800 OM OM1 2800 -0.550000 15.99940
2801 OM 2801 OM OM1 2801 -0.550000 15.99940
2802 OM 2802 OM OM1 2802 -0.550000 15.99940
2803 OM 2803 OM OM1 2803 -0.550000 15.99940
2804 OM 2804 OM OM1 2804 -0.550000 15.99940
2805 OM 2805 OM OM1 2805 -0.550000 15.99940
2806 OM 2806 OM OM1 2806 -0.550000 15.99940
2807 OM 2807 OM OM1 2807 -0.550000 15.99940
2808 OM 2808 OM OM1 2808 -0.550000 15.99940
2809 OM 2809 OM OM1 2809 -0.550000 15.99940
2810 OM 2810 OM OM1 2810 -0.550000 15.99940
2811 OM 2811 OM OM1 2811 -0.550000 15.99940
2812 OM 2812 OM OM1 2812 -0.550000 15.99940
2813 OM 2813 OM OM1 2813 -0.550000 15.99940
2814 OM 2814 OM OM1 2814 -0.550000 15.99940
2815 OM 2815 OM OM1 2815 -0.550000 15.99940
2816 OM 2816 OM OM1 2816 -0.550000 15.99940
2817 OM 2817 OM OM1 2817 -0.550000 15.99940
2818 OM 2818 OM OM1 2818 -0.550000 15.99940
2819 OM 2819 OM OM1 2819 -0.550000 15.99940
2820 OM 2820 OM OM1 2820 -0.550000 15.99940
2821 OM 2821 OM OM1 2821 -0.550000 15.99940
2822 OM 2822 OM OM1 2822 -0.550000 15.99940
2823 OM 2823 OM OM1 2823 -0.550000 15.99940
2824 OM 2824 OM OM1 2824 -0.550000 15.99940
2825 OM 2825 OM OM1 2825 -0.550000 15.99940
2826 OM 2826 OM OM1 2826 -0.550000 15.99940
2827 OM 2827 OM OM1 2827 -0.550000 15.99940
2828 OM 2828 OM OM1 2828 -0.550000 15.99940
2829 OM 2829 OM OM1 2829 -0.550000 15.99940
2830 OM 2830 OM OM1 2830 -0.550000 15.99940
2831 OM 2831 OM OM1 2831 -0.550000 15.99940
2832 OM 2832 OM OM1 2832 -0.550000 15.99940
2833 OM 2833 OM OM1 2833 -0.550000 15.99940
2834 OM 2834 OM OM1 2834 -0.550000 15.99940
2835 OM 2835 OM OM1 2835 -0.550000 15.99940
2836 OM 2836 OM OM1 2836 -0.550000 15.99940
2837 OM 2837 OM OM1 2837 -0.550000 15.99940
2838 OM 2838 OM OM1 2838 -0.550000 15.99940
2839 OM 2839 OM OM1 2839 -0.550000 15.99940
2840 OM 2840 OM OM1 2840 -0.550000 15.99940
2841 OM 2841 OM OM1 2841 -0.550000 15.99940
2842 OM 2842 OM OM1 2842 -0.550000 15.99940
2843 OM 2843 OM OM1 2843 -0.550000 15.99940
2844 OM 2844 OM OM1 2844 -0.550000 15.99940
2845 OM 2845 OM OM1 2845 -0.550000 15.99940
2846 OM 2846 OM OM1 2846 -0.550000 15.99940
2847 OM 2847 OM OM1 2847 -0.550000 15.99940
2848 OM 2848 OM OM1 2848 -0.550000 15.99940
2849 OM 2849 OM OM1 2849 -0.550000 15.99940
2850 OM 2850 OM OM1 2850 -0.550000 15.99940
2851 OM 2851 OM OM1 2851 -0.550000 15.99940
2852 OM 2852 OM OM1 2852 -0.550000 15.99940
2853 OM 2853 OM OM1 2853 -0.550000 15.99940
2854 OM 2854 OM OM1 2854 -0.550000 15.99940
2855 OM 2855 OM OM1 2855 -0.550000 15.99940
2856 OM 2856 OM OM1 2856 -0.550000 15.99940
2857 OM 2857 OM OM1 2857 -0.550000 15.99940
2858 OM 2858 OM OM1 2858 -0.550000 15.99940
2859 OM 2859 OM OM1 2859 -0.550000 15.99940
2860 OM 2860 OM OM1 2860 -0.550000 15.99940
2861 OM 2861 OM OM1 2861 -0.550000 15.99940
2862 OM 2862 OM OM1 2862 -0.550000 15.99940
2863 OM 2863 OM OM1 2863 -0.550000 15.99940
2864 OM 2864 OM OM1 2864 -0.550000 15.99940
2865 OM 2865 OM OM1 2865 -0.550000 15.99940
2866 OM 2866 OM OM1 2866 -0.550000 15.99940
2867 OM 2867 OM OM1 2867 -0.550000 15.99940
2868 OM 2868 OM OM1 2868 -0.550000 15.99940
2869 OM 2869 OM OM1 2869 -0.550000 15.99940
2870 OM 2870 OM OM1 2870 -0.550000 15.99940
2871 OM 2871 OM OM1 2871 -0.550000 15.99940
2872 OM 2872 OM OM1 2872 -0.550000 15.99940
2873 OM 2873 OM OM1 2873 -0.550000 15.99940
2874 OM 2874 OM OM1 2874 -0.550000 15.99940
2875 OM 2875 OM OM1 2875 -0.550000 15.99940
2876 OM 2876 OM OM1 2876 -0.550000 15.99940
2877 OM 2877 OM OM1 2877 -0.550000 15.99940
2878 OM 2878 OM OM1 2878 -0.550000 15.99940
2879 OM 2879 OM OM1 2879 -0.550000 15.99940
2880 OM 2880 OM OM1 2880 -0.550000 15.99940
2881 OM 2881 OM OM1 2881 -0.550000 15.99940
2882 OM 2882 OM OM1 2882 -0.550000 15.99940
2883 OM 2883 OM OM1 2883 -0.550000 15.99940
2884 OM 2884 OM OM1 2884 -0.550000 15.99940
2885 OM 2885 OM OM1 2885 -0.550000 15.99940
2886 OM 2886 OM OM1 2886 -0.550000 15.99940
2887 OM 2887 OM OM1 2887 -0.550000 15.99940
2888 OM 2888 OM OM1 2888 -0.550000 15.99940
2889 OM 2889 OM OM1 2889 -0.550000 15.99940
2890 OM 2890 OM OM1 2890 -0.550000 15.99940
2891 OM 2891 OM OM1 2891 -0.550000 15.99940
2892 OM 2892 OM OM1 2892 -0.550000 15.99940
2893 OM 2893 OM OM1 2893 -0.550000 15.99940
2894 OM 2894 OM OM1 2894 -0.550000 15.99940
2895 OM 2895 OM OM1 2895 -0.550000 15.99940
2896 OM 2896 OM OM1 2896 -0.550000 15.99940
2897 OM 2897 OM OM1 2897 -0.550000 15.99940
2898 OM 2898 OM OM1 2898 -0.550000 15.99940
2899 OM 2899 OM OM1 2899 -0.550000 15.99940
2900 OM 2900 OM OM1 2900 -0.550000 15.99940
2901 OM 2901 OM OM1 2901 -0.550000 15.99940
2902 OM 2902 OM OM1 2902 -0.550000 15.99940
2903 OM 2903 OM OM1 2903 -0.550000 15.99940
2904 OM 2904 OM OM1 2904 -0.550000 15.99940
2905 OM 2905 OM OM1 2905 -0.550000 15.99940
2906 OM 2906 OM OM1 2906 -0.550000 15.99940
2907 OM 2907 OM OM1 2907 -0.550000 15.99940
2908 OM 2908 OM OM1 2908 -0.550000 15.99940
2909 OM 2909 OM OM1 2909 -0.550000 15.99940
2910 OM 2910 OM OM1 2910 -0.550000 15.99940
2911 OM 2911 OM OM1 2911 -0.550000 15.99940
2912 OM 2912 OM OM1 2912 -0.550000 15.99940
2913 OM 2913 OM OM1 2913 -0.550000 15.99940
2914 OM 2914 OM OM1 2914 -0.550000 15.99940
2915 OM 2915 OM OM1 2915 -0.550000 15.99940
2916 OM 2916 OM OM1 2916 -0.550000 15.99940
2917 OM 2917 OM OM1 2917 -0.550000 15.99940
2918 OM 2918 OM OM1 2918 -0.550000 15.99940
2919 OM 2919 OM OM1 2919 -0.550000 15.99940
2920 OM 2920 OM OM1 2920 -0.550000 15.99940
2921 OM 2921 OM OM1 2921 -0.550000 15.99940
2922 OM 2922 OM OM1 2922 -0.550000 15.99940
2923 OM 2923 OM OM1 2923 -0.550000 15.99940
2924 OM 2924 OM OM1 2924 -0.550000 15.99940
2925 OM 2925 OM OM1 2925 -0.550000 15.99940
2926 OM 2926 OM OM1 2926 -0.550000 15.99940
2927 OM 2927 OM OM1 2927 -0.550000 15.99940
2928 OM 2928 OM OM1 2928 -0.550000 15.99940
2929 OM 2929 OM OM1 2929 -0.550000 15.99940
2930 OM 2930 OM OM1 2930 -0.550000 15.99940
2931 OM 2931 OM OM1 2931 -0.550000 15.99940
2932 OM 2932 OM OM1 2932 -0.550000 15.99940
2933 OM 2933 OM OM1 2933 -0.550000 15.99940
2934 OM 2934 OM OM1 2934 -0.550000 15.99940
2935 OM 2935 OM OM1 2935 -0.550000 15.99940
2936 OM 2936 OM OM1 2936 -0.550000 15.99940
2937 OM 2937 OM OM1 2937 -0.550000 15.99940
2938 OM 2938 OM OM1 2938 -0.550000 15.99940
2939 OM 2939 OM OM1 2939 -0.550000 15.99940
2940 OM 2940 OM OM1 2940 -0.550000 15.99940
2941 OM 2941 OM OM1 2941 -0.550000 15.99940
2942 OM 2942 OM OM1 2942 -0.550000 15.99940
2943 OM 2943 OM OM1 2943 -0.550000 15.99940
2944 OM 2944 OM OM1 2944 -0.550000 15.99940
2945 OM 2945 OM OM1 2945 -0.550000 15.99940
2946 OM 2946 OM OM1 2946 -0.550000 15.99940
2947 OM 2947 OM OM1 2947 -0.550000 15.99940
2948 OM 2948 OM OM1 2948 -0.550000 15.99940
2949 OM 2949 OM OM1 2949 -0.550000 15.99940
2950 OM 2950 OM OM1 2950 -0.550000 15.99940
2951 OM 2951 OM OM1 2951 -0.550000 15.99940
2952 OM 2952 OM OM1 2952 -0.550000 15.99940
2953 OM 2953 OM OM1 2953 -0.550000 15.99940
2954 OM 2954 OM OM1 2954 -0.550000 15.99940
2955 OM 2955 OM OM1 2955 -0.550000 15.99940
2956 OM 2956 OM OM1 2956 -0.550000 15.99940
2957 OM 2957 OM OM1 2957 -0.550000 15.99940
2958 OM 2958 OM OM1 2958 -0.550000 15.99940
2959 OM 2959 OM OM1 2959 -0.550000 15.99940
2960 OM 2960 OM OM1 2960 -0.550000 15.99940
2961 OM 2961 OM OM1 2961 -0.550000 15.99940
2962 OM 2962 OM OM1 2962 -0.550000 15.99940
2963 OM 2963 OM OM1 2963 -0.550000 15.99940
2964 OM 2964 OM OM1 2964 -0.550000 15.99940
2965 OM 2965 OM OM1 2965 -0.550000 15.99940
2966 OM 2966 OM OM1 2966 -0.550000 15.99940
2967 OM 2967 OM OM1 2967 -0.550000 15.99940
2968 OM 2968 OM OM1 2968 -0.550000 15.99940
2969 OM 2969 OM OM1 2969 -0.550000 15.99940
2970 OM 2970 OM OM1 2970 -0.550000 15.99940
2971 OM 2971 OM OM1 2971 -0.550000 15.99940
2972 OM 2972 OM OM1 2972 -0.550000 15.99940
2973 OM 2973 OM OM1 2973 -0.550000 15.99940
2974 OM 2974 OM OM1 2974 -0.550000 15.99940
2975 OM 2975 OM OM1 2975 -0.550000 15.99940
2976 OM 2976 OM OM1 2976 -0.550000 15.99940
2977 OM 2977 OM OM1 2977 -0.550000 15.99940
2978 OM 2978 OM OM1 2978 -0.550000 15.99940
2979 OM 2979 OM OM1 2979 -0.550000 15.99940
2980 OM 2980 OM OM1 2980 -0.550000 15.99940
2981 OM 2981 OM OM1 2981 -0.550000 15.99940
2982 OM 2982 OM OM1 2982 -0.550000 15.99940
2983 OM 2983 OM OM1 2983 -0.550000 15.99940
2984 OM 2984 OM OM1 2984 -0.550000 15.99940
2985 OM 2985 OM OM1 2985 -0.550000 15.99940
2986 OM 2986 OM OM1 2986 -0.550000 15.99940
2987 OM 2987 OM OM1 2987 -0.550000 15.99940
2988 OM 2988 OM OM1 2988 -0.550000 15.99940
2989 OM 2989 OM OM1 2989 -0.550000 15.99940
2990 OM 2990 OM OM1 2990 -0.550000 15.99940
2991 OM 2991 OM OM1 2991 -0.550000 15.99940
2992 OM 2992 OM OM1 2992 -0.550000 15.99940
2993 OM 2993 OM OM1 2993 -0.550000 15.99940
2994 OM 2994 OM OM1 2994 -0.550000 15.99940
2995 OM 2995 OM OM1 2995 -0.550000 15.99940
2996 OM 2996 OM OM1 2996 -0.550000 15.99940
2997 OM 2997 OM OM1 2997 -0.550000 15.99940
2998 OM 2998 OM OM1 2998 -0.550000 15.99940
2999 OM 2999 OM OM1 2999 -0.550000 15.99940
3000 OM 3000 OM OM1 3000 -0.550000 15.99940
3001 OM 3001 OM OM1 3001 -0.550000 15.99940
3002 OM 3002 OM OM1 3002 -0.550000 15.99940
3003 OM 3003 OM OM1 3003 -0.550000 15.99940
3004 OM 3004 OM OM1 3004 -0.550000 15.99940
3005 OM 3005 OM OM1 3005 -0.550000 15.99940
3006 OM 3006 OM OM1 3006 -0.550000 15.99940
3007 OM 3007 OM OM1 3007 -0.550000 15.99940
3008 OM 3008 OM OM1 3008 -0.550000 15.99940
3009 OM 3009 OM OM1 3009 -0.550000 15.99940
3010 OM 3010 OM OM1 3010 -0.550000 15.99940
3011 OM 3011 OM OM1 3011 -0.550000 15.99940
3012 OM 3012 OM OM1 3012 -0.550000 15.99940
3013 OM 3013 OM OM1 3013 -0.550000 15.99940
3014 OM 3014 OM OM1 3014 -0.550000 15.99940
3015 OM 3015 OM OM1 3015 -0.550000 15.99940
3016 OM 3016 OM OM1 3016 -0.550000 15.99940
3017 OM 3017 OM OM1 3017 -0.550000 15.99940
3018 OM 3018 OM OM1 3018 -0.550000 15.99940
3019 OM 3019 OM OM1 3019 -0.550000 15.99940
3020 OM 3020 OM OM1 3020 -0.550000 15.99940
3021 OM 3021 OM OM1 3021 -0.550000 15.99940
3022 OM 3022 OM OM1 3022 -0.550000 15.99940
3023 OM 3023 OM OM1 3023 -0.550000 15.99940
3024 OM 3024 OM OM1 3024 -0.550000 15.99940
3025 OM 3025 OM OM1 3025 -0.550000 15.99940
3026 OM 3026 OM OM1 3026 -0.550000 15.99940
3027 OM 3027 OM OM1 3027 -0.550000 15.99940
3028 OM 3028 OM OM1 3028 -0.550000 15.99940
3029 OM 3029 OM OM1 3029 -0.550000 15.99940
3030 OM 3030 OM OM1 3030 -0.550000 15.99940
3031 OM 3031 OM OM1 3031 -0.550000 15.99940
3032 OM 3032 OM OM1 3032 -0.550000 15.99940
3033 OM 3033 OM OM1 3033 -0.550000 15.99940
3034 OM 3034 OM OM1 3034 -0.550000 15.99940
3035 OM 3035 OM OM1 3035 -0.550000 15.99940
3036 OM 3036 OM OM1 3036 -0.550000 15.99940
3037 OM 3037 OM OM1 3037 -0.550000 15.99940
3038 OM 3038 OM OM1 3038 -0.550000 15.99940
3039 OM 3039 OM OM1 3039 -0.550000 15.99940
3040 OM 3040 OM OM1 3040 -0.550000 15.99940
3041 OM 3041 OM OM1 3041 -0.550000 15.99940
3042 OM 3042 OM OM1 3042 -0.550000 15.99940
3043 OM 3043 OM OM1 3043 -0.550000 15.99940
3044 OM 3044 OM OM1 3044 -0.550000 15.99940
3045 OM 3045 OM OM1 3045 -0.550000 15.99940
3046 OM 3046 OM OM1 3046 -0.550000 15.99940
3047 OM 3047 OM OM1 3047 -0.550000 15.99940
3048 OM 3048 OM OM1 3048 -0.550000 15.99940
3049 OM 3049 OM OM1 3049 -0.550000 15.99940
3050 OM 3050 OM OM1 3050 -0.550000 15.99940
3051 OM 3051 OM OM1 3051 -0.550000 15.99940
3052 OM 3052 OM OM1 3052 -0.550000 15.99940
3053 OM 3053 OM OM1 3053 -0.550000 15.99940
3054 OM 3054 OM OM1 3054 -0.550000 15.99940
3055 OM 3055 OM OM1 3055 -0.550000 15.99940
3056 OM 3056 OM OM1 3056 -0.550000 15.99940
3057 OM 3057 OM OM1 3057 -0.550000 15.99940
3058 OM 3058 OM OM1 3058 -0.550000 15.99940
3059 OM 3059 OM OM1 3059 -0.550000 15.99940
3060 OM 3060 OM OM1 3060 -0.550000 15.99940
3061 OM 3061 OM OM1 3061 -0.550000 15.99940
3062 OM 3062 OM OM1 3062 -0.550000 15.99940
3063 OM 3063 OM OM1 3063 -0.550000 15.99940
3064 OM 3064 OM OM1 3064 -0.550000 15.99940
3065 OM 3065 OM OM1 3065 -0.550000 15.99940
3066 OM 3066 OM OM1 3066 -0.550000 15.99940
3067 OM 3067 OM OM1 3067 -0.550000 15.99940
3068 OM 3068 OM OM1 3068 -0.550000 15.99940
3069 OM 3069 OM OM1 3069 -0.550000 15.99940
3070 OM 3070 OM OM1 3070 -0.550000 15.99940
3071 OM 3071 OM OM1 3071 -0.550000 15.99940
3072 OM 3072 OM OM1 3072 -0.550000 15.99940
3073 OM 3073 OM OM1 3073 -0.550000 15.99940
3074 OM 3074 OM OM1 3074 -0.550000 15.99940
3075 OM 3075 OM OM1 3075 -0.550000 15.99940
3076 OM 3076 OM OM1 3076 -0.550000 15.99940
3077 OM 3077 OM OM1 3077 -0.550000 15.99940
3078 OM 3078 OM OM1 3078 -0.550000 15.99940
3079 OM 3079 OM OM1 3079 -0.550000 15.99940
3080 OM 3080 OM OM1 3080 -0.550000 15.99940
3081 OM 3081 OM OM1 3081 -0.550000 15.99940
3082 OM 3082 OM OM1 3082 -0.550000 15.99940
3083 OM 3083 OM OM1 3083 -0.550000 15.99940
3084 OM 3084 OM OM1 3084 -0.550000 15.99940
3085 OM 3085 OM OM1 3085 -0.550000 15.99940
3086 OM 3086 OM OM1 3086 -0.550000 15.99940
3087 OM 3087 OM OM1 3087 -0.550000 15.99940
3088 OM 3088 OM OM1 3088 -0.550000 15.99940
3089 OM 3089 OM OM1 3089 -0.550000 15.99940
3090 OM 3090 OM OM1 3090 -0.550000 15.99940
3091 OM 3091 OM OM1 3091 -0.550000 15.99940
3092 OM 3092 OM OM1 3092 -0.550000 15.99940
3093 OM 3093 OM OM1 3093 -0.550000 15.99940
3094 OM 3094 OM OM1 3094 -0.550000 15.99940
3095 OM 3095 OM OM1 3095 -0.550000 15.99940
3096 OM 3096 OM OM1 3096 -0.550000 15.99940
3097 OM 3097 OM OM1 3097 -0.550000 15.99940
3098 OM 3098 OM OM1 3098 -0.550000 15.99940
3099 OM 3099 OM OM1 3099 -0.550000 15.99940
3100 OM 3100 OM OM1 3100 -0.550000 15.99940
3101 OM 3101 OM OM1 3101 -0.550000 15.99940
3102 OM 3102 OM OM1 3102 -0.550000 15.99940
3103 OM 3103 OM OM1 3103 -0.550000 15.99940
3104 OM 3104 OM OM1 3104 -0.550000 15.99940
3105 OM 3105 OM OM1 3105 -0.550000 15.99940
3106 OM 3106 OM OM1 3106 -0.550000 15.99940
3107 OM 3107 OM OM1 3107 -0.550000 15.99940
3108 OM 3108 OM OM1 3108 -0.550000 15.99940
3109 OM 3109 OM OM1 3109 -0.550000 15.99940
3110 OM 3110 OM OM1 3110 -0.550000 15.99940
3111 OM 3111 OM OM1 3111 -0.550000 15.99940
3112 OM 3112 OM OM1 3112 -0.550000 15.99940
3113 OM 3113 OM OM1 3113 -0.550000 15.99940
3114 OM 3114 OM OM1 3114 -0.550000 15.99940
3115 OM 3115 OM OM1 3115 -0.550000 15.99940
3116 OM 3116 OM OM1 3116 -0.550000 15.99940
3117 OM 3117 OM OM1 3117 -0.550000 15.99940
3118 OM 3118 OM OM1 3118 -0.550000 15.99940
3119 OM 3119 OM OM1 3119 -0.550000 15.99940
3120 OM 3120 OM OM1 3120 -0.550000 15.99940
3121 OM 3121 OM OM1 3121 -0.550000 15.99940
3122 OM 3122 OM OM1 3122 -0.550000 15.99940
3123 OM 3123 OM OM1 3123 -0.550000 15.99940
3124 OM 3124 OM OM1 3124 -0.550000 15.99940
3125 OM 3125 OM OM1 3125 -0.550000 15.99940
3126 OM 3126 OM OM1 3126 -0.550000 15.99940
3127 OM 3127 OM OM1 3127 -0.550000 15.99940
3128 OM 3128 OM OM1 3128 -0.550000 15.99940
3129 OM 3129 OM OM1 3129 -0.550000 15.99940
3130 OM 3130 OM OM1 3130 -0.550000 15.99940
3131 OM 3131 OM OM1 3131 -0.550000 15.99940
3132 OM 3132 OM OM1 3132 -0.550000 15.99940
3133 OM 3133 OM OM1 3133 -0.550000 15.99940
3134 OM 3134 OM OM1 3134 -0.550000 15.99940
3135 OM 3135 OM OM1 3135 -0.550000 15.99940
3136 OM 3136 OM OM1 3136 -0.550000 15.99940
3137 OM 3137 OM OM1 3137 -0.550000 15.99940
3138 OM 3138 OM OM1 3138 -0.550000 15.99940
3139 OM 3139 OM OM1 3139 -0.550000 15.99940
3140 OM 3140 OM OM1 3140 -0.550000 15.99940
3141 OM 3141 OM OM1 3141 -0.550000 15.99940
3142 OM 3142 OM OM1 3142 -0.550000 15.99940
3143 OM 3143 OM OM1 3143 -0.550000 15.99940
3144 OM 3144 OM OM1 3144 -0.550000 15.99940
3145 OM 3145 OM OM1 3145 -0.550000 15.99940
3146 OM 3146 OM OM1 3146 -0.550000 15.99940
3147 OM 3147 OM OM1 3147 -0.550000 15.99940
3148 OM 3148 OM OM1 3148 -0.550000 15.99940
3149 OM 3149 OM OM1 3149 -0.550000 15.99940
3150 OM 3150 OM OM1 3150 -0.550000 15.99940
3151 OM 3151 OM OM1 3151 -0.550000 15.99940
3152 OM 3152 OM OM1 3152 -0.550000 15.99940
3153 OM 3153 OM OM1 3153 -0.550000 15.99940
3154 OM 3154 OM OM1 3154 -0.550000 15.99940
3155 OM 3155 OM OM1 3155 -0.550000 15.99940
3156 OM 3156 OM OM1 3156 -0.550000 15.99940
3157 OM 3157 OM OM1 3157 -0.550000 15.99940
3158 OM 3158 OM OM1 3158 -0.550000 15.99940
3159 OM 3159 OM OM1 3159 -0.550000 15.99940
3160 OM 3160 OM OM1 3160 -0.550000 15.99940
3161 OM 3161 OM OM1 3161 -0.550000 15.99940
3162 OM 3162 OM OM1 3162 -0.550000 15.99940
3163 OM 3163 OM OM1 3163 -0.550000 15.99940
3164 OM 3164 OM OM1 3164 -0.550000 15.99940
3165 OM 3165 OM OM1 3165 -0.550000 15.99940
3166 OM 3166 OM OM1 3166 -0.550000 15.99940
3167 OM 3167 OM OM1 3167 -0.550000 15.99940
3168 OM 3168 OM OM1 3168 -0.550000 15.99940
3169 OM 3169 OM OM1 3169 -0.550000 15.99940
3170 OM 3170 OM OM1 3170 -0.550000 15.99940
3171 OM 3171 OM OM1 3171 -0.550000 15.99940
3172 OM 3172 OM OM1 3172 -0.550000 15.99940
3173 OM 3173 OM OM1 3173 -0.550000 15.99940
3174 OM 3174 OM OM1 3174 -0.550000 15.99940
3175 OM 3175 OM OM1 3175 -0.550000 15.99940
3176 OM 3176 OM OM1 3176 -0.550000 15.99940
3177 OM 3177 OM OM1 3177 -0.550000 15.99940
3178 OM 3178 OM OM1 3178 -0.550000 15.99940
3179 OM 3179 OM OM1 3179 -0.550000 15.99940
3180 OM 3180 OM OM1 3180 -0.550000 15.99940
3181 OM 3181 OM OM1 3181 -0.550000 15.99940
3182 OM 3182 OM OM1 3182 -0.550000 15.99940
3183 OM 3183 OM OM1 3183 -0.550000 15.99940
3184 OM 3184 OM OM1 3184 -0.550000 15.99940
3185 OM 3185 OM OM1 3185 -0.550000 15.99940
3186 OM 3186 OM OM1 3186 -0.550000 15.99940
3187 OM 3187 OM OM1 3187 -0.550000 15.99940
3188 OM 3188 OM OM1 3188 -0.550000 15.99940
3189 OM 3189 OM OM1 3189 -0.550000 15.99940
3190 OM 3190 OM OM1 3190 -0.550000 15.99940
3191 OM 3191 OM OM1 3191 -0.550000 15.99940
3192 OM 3192 OM OM1 3192 -0.550000 15.99940
3193 OM 3193 OM OM1 3193 -0.550000 15.99940
3194 OM 3194 OM OM1 3194 -0.550000 15.99940
3195 OM 3195 OM OM1 3195 -0.550000 15.99940
3196 OM 3196 OM OM1 3196 -0.550000 15.99940
3197 OM 3197 OM OM1 3197 -0.550000 15.99940
3198 OM 3198 OM OM1 3198 -0.550000 15.99940
3199 OM 3199 OM OM1 3199 -0.550000 15.99940
3200 OM 3200 OM OM1 3200 -0.550000 15.99940
3201 OM 3201 OM OM1 3201 -0.550000 15.99940
3202 OM 3202 OM OM1 3202 -0.550000 15.99940
3203 OM 3203 OM OM1 3203 -0.550000 15.99940
3204 OM 3204 OM OM1 3204 -0.550000 15.99940
3205 OM 3205 OM OM1 3205 -0.550000 15.99940
3206 OM 3206 OM OM1 3206 -0.550000 15.99940
3207 OM 3207 OM OM1 3207 -0.550000 15.99940
3208 OM 3208 OM OM1 3208 -0.550000 15.99940
3209 OM 3209 OM OM1 3209 -0.550000 15.99940
3210 OM 3210 OM OM1 3210 -0.550000 15.99940
3211 OM 3211 OM OM1 3211 -0.550000 15.99940
3212 OM 3212 OM OM1 3212 -0.550000 15.99940
3213 OM 3213 OM OM1 3213 -0.550000 15.99940
3214 OM 3214 OM OM1 3214 -0.550000 15.99940
3215 OM 3215 OM OM1 3215 -0.550000 15.99940
3216 OM 3216 OM OM1 3216 -0.550000 15.99940
3217 OM 3217 OM OM1 3217 -0.550000 15.99940
3218 OM 3218 OM OM1 3218 -0.550000 15.99940
3219 OM 3219 OM OM1 3219 -0.550000 15.99940
3220 OM 3220 OM OM1 3220 -0.550000 15.99940
3221 OM 3221 OM OM1 3221 -0.550000 15.99940
3222 OM 3222 OM OM1 3222 -0.550000 15.99940
3223 OM 3223 OM OM1 3223 -0.550000 15.99940
3224 OM 3224 OM OM1 3224 -0.550000 15.99940
3225 OM 3225 OM OM1 3225 -0.550000 15.99940
3226 OM 3226 OM OM1 3226 -0.550000 15.99940
3227 OM 3227 OM OM1 3227 -0.550000 15.99940
3228 OM 3228 OM OM1 3228 -0.550000 15.99940
3229 OM 3229 OM OM1 3229 -0.550000 15.99940
3230 OM 3230 OM OM1 3230 -0.550000 15.99940
3231 OM 3231 OM OM1 3231 -0.550000 15.99940
3232 OM 3232 OM OM1 3232 -0.550000 15.99940
3233 OM 3233 OM OM1 3233 -0.550000 15.99940
3234 OM 3234 OM OM1 3234 -0.550000 15.99940
3235 OM 3235 OM OM1 3235 -0.550000 15.99940
3236 OM 3236 OM OM1 3236 -0.550000 15.99940
3237 OM 3237 OM OM1 3237 -0.550000 15.99940
3238 OM 3238 OM OM1 3238 -0.550000 15.99940
3239 OM 3239 OM OM1 3239 -0.550000 15.99940
3240 OM 3240 OM OM1 3240 -0.550000 15.99940
3241 OM 3241 OM OM1 3241 -0.550000 15.99940
3242 OM 3242 OM OM1 3242 -0.550000 15.99940
3243 OM 3243 OM OM1 3243 -0.550000 15.99940
3244 OM 3244 OM OM1 3244 -0.550000 15.99940
3245 OM 3245 OM OM1 3245 -0.550000 15.99940
3246 OM 3246 OM OM1 3246 -0.550000 15.99940
3247 OM 3247 OM OM1 3247 -0.550000 15.99940
3248 OM 3248 OM OM1 3248 -0.550000 15.99940
3249 OM 3249 OM OM1 3249 -0.550000 15.99940
3250 OM 3250 OM OM1 3250 -0.550000 15.99940
3251 OM 3251 OM OM1 3251 -0.550000 15.99940
3252 OM 3252 OM OM1 3252 -0.550000 15.99940
3253 OM 3253 OM OM1 3253 -0.550000 15.99940
3254 OM 3254 OM OM1 3254 -0.550000 15.99940
3255 OM 3255 OM OM1 3255 -0.550000 15.99940
3256 OM 3256 OM OM1 3256 -0.550000 15.99940
3257 OM 3257 OM OM1 3257 -0.550000 15.99940
3258 OM 3258 OM OM1 3258 -0.550000 15.99940
3259 OM 3259 OM OM1 3259 -0.550000 15.99940
3260 OM 3260 OM OM1 3260 -0.550000 15.99940
3261 OM 3261 OM OM1 3261 -0.550000 15.99940
3262 OM 3262 OM OM1 3262 -0.550000 15.99940
3263 OM 3263 OM OM1 3263 -0.550000 15.99940
3264 OM 3264 OM OM1 3264 -0.550000 15.99940
3265 OM 3265 OM OM1 3265 -0.550000 15.99940
3266 OM 3266 OM OM1 3266 -0.550000 15.99940
3267 OM 3267 OM OM1 3267 -0.550000 15.99940
3268 OM 3268 OM OM1 3268 -0.550000 15.99940
3269 OM 3269 OM OM1 3269 -0.550000 15.99940
3270 OM 3270 OM OM1 3270 -0.550000 15.99940
3271 OM 3271 OM OM1 3271 -0.550000 15.99940
3272 OM 3272 OM OM1 3272 -0.550000 15.99940
3273 OM 3273 OM OM1 3273 -0.550000 15.99940
3274 OM 3274 OM OM1 3274 -0.550000 15.99940
3275 OM 3275 OM OM1 3275 -0.550000 15.99940
3276 OM 3276 OM OM1 3276 -0.550000 15.99940
3277 OM 3277 OM OM1 3277 -0.550000 15.99940
3278 OM 3278 OM OM1 3278 -0.550000 15.99940
3279 OM 3279 OM OM1 3279 -0.550000 15.99940
3280 OM 3280 OM OM1 3280 -0.550000 15.99940
3281 OM 3281 OM OM1 3281 -0.550000 15.99940
3282 OM 3282 OM OM1 3282 -0.550000 15.99940
3283 OM 3283 OM OM1 3283 -0.550000 15.99940
3284 OM 3284 OM OM1 3284 -0.550000 15.99940
3285 OM 3285 OM OM1 3285 -0.550000 15.99940
3286 OM 3286 OM OM1 3286 -0.550000 15.99940
3287 OM 3287 OM OM1 3287 -0.550000 15.99940
3288 OM 3288 OM OM1 3288 -0.550000 15.99940
3289 OM 3289 OM OM1 3289 -0.550000 15.99940
3290 OM 3290 OM OM1 3290 -0.550000 15.99940
3291 OM 3291 OM OM1 3291 -0.550000 15.99940
3292 OM 3292 OM OM1 3292 -0.550000 15.99940
3293 OM 3293 OM OM1 3293 -0.550000 15.99940
3294 OM 3294 OM OM1 3294 -0.550000 15.99940
3295 OM 3295 OM OM1 3295 -0.550000 15.99940
3296 OM 3296 OM OM1 3296 -0.550000 15.99940
3297 OM 3297 OM OM1 3297 -0.550000 15.99940
3298 OM 3298 OM OM1 3298 -0.550000 15.99940
3299 OM 3299 OM OM1 3299 -0.550000 15.99940
3300 OM 3300 OM OM1 3300 -0.550000 15.99940
3301 OM 3301 OM OM1 3301 -0.550000 15.99940
3302 OM 3302 OM OM1 3302 -0.550000 15.99940
3303 OM 3303 OM OM1 3303 -0.550000 15.99940
3304 OM 3304 OM OM1 3304 -0.550000 15.99940
3305 OM 3305 OM OM1 3305 -0.550000 15.99940
3306 OM 3306 OM OM1 3306 -0.550000 15.99940
3307 OM 3307 OM OM1 3307 -0.550000 15.99940
3308 OM 3308 OM OM1 3308 -0.550000 15.99940
3309 OM 3309 OM OM1 3309 -0.550000 15.99940
3310 OM 3310 OM OM1 3310 -0.550000 15.99940
3311 OM 3311 OM OM1 3311 -0.550000 15.99940
3312 OM 3312 OM OM1 3312 -0.550000 15.99940
3313 OM 3313 OM OM1 3313 -0.550000 15.99940
3314 OM 3314 OM OM1 3314 -0.550000 15.99940
3315 OM 3315 OM OM1 3315 -0.550000 15.99940
3316 OM 3316 OM OM1 3316 -0.550000 15.99940
3317 OM 3317 OM OM1 3317 -0.550000 15.99940
3318 OM 3318 OM OM1 3318 -0.550000 15.99940
3319 OM 3319 OM OM1 3319 -0.550000 15.99940
3320 OM 3320 OM OM1 3320 -0.550000 15.99940
3321 OM 3321 OM OM1 3321 -0.550000 15.99940
3322 OM 3322 OM OM1 3322 -0.550000 15.99940
3323 OM 3323 OM OM1 3323 -0.550000 15.99940
3324 OM 3324 OM OM1 3324 -0.550000 15.99940
3325 OM 3325 OM OM1 3325 -0.550000 15.99940
3326 OM 3326 OM OM1 3326 -0.550000 15.99940
3327 OM 3327 OM OM1 3327 -0.550000 15.99940
3328 OM 3328 OM OM1 3328 -0.550000 15.99940
3329 OM 3329 OM OM1 3329 -0.550000 15.99940
3330 OM 3330 OM OM1 3330 -0.550000 15.99940
3331 OM 3331 OM OM1 3331 -0.550000 15.99940
3332 OM 3332 OM OM1 3332 -0.550000 15.99940
3333 OM 3333 OM OM1 3333 -0.550000 15.99940
3334 OM 3334 OM OM1 3334 -0.550000 15.99940
3335 OM 3335 OM OM1 3335 -0.550000 15.99940
3336 OM 3336 OM OM1 3336 -0.550000 15.99940
3337 OM 3337 OM OM1 3337 -0.550000 15.99940
3338 OM 3338 OM OM1 3338 -0.550000 15.99940
3339 OM 3339 OM OM1 3339 -0.550000 15.99940
3340 OM 3340 OM OM1 3340 -0.550000 15.99940
3341 OM 3341 OM OM1 3341 -0.550000 15.99940
3342 OM 3342 OM OM1 3342 -0.550000 15.99940
3343 OM 3343 OM OM1 3343 -0.550000 15.99940
3344 OM 3344 OM OM1 3344 -0.550000 15.99940
3345 OM 3345 OM OM1 3345 -0.550000 15.99940
3346 OM 3346 OM OM1 3346 -0.550000 15.99940
3347 OM 3347 OM OM1 3347 -0.550000 15.99940
3348 OM 3348 OM OM1 3348 -0.550000 15.99940
3349 OM 3349 OM OM1 3349 -0.550000 15.99940
3350 OM 3350 OM OM1 3350 -0.550000 15.99940
3351 OM 3351 OM OM1 3351 -0.550000 15.99940
3352 OM 3352 OM OM1 3352 -0.550000 15.99940
3353 OM 3353 OM OM1 3353 -0.550000 15.99940
3354 OM 3354 OM OM1 3354 -0.550000 15.99940
3355 OM 3355 OM OM1 3355 -0.550000 15.99940
3356 OM 3356 OM OM1 3356 -0.550000 15.99940
3357 OM 3357 OM OM1 3357 -0.550000 15.99940
3358 OM 3358 OM OM1 3358 -0.550000 15.99940
3359 OM 3359 OM OM1 3359 -0.550000 15.99940
3360 OM 3360 OM OM1 3360 -0.550000 15.99940
3361 OM 3361 OM OM1 3361 -0.550000 15.99940
3362 OM 3362 OM OM1 3362 -0.550000 15.99940
3363 OM 3363 OM OM1 3363 -0.550000 15.99940
3364 OM 3364 OM OM1 3364 -0.550000 15.99940
3365 OM 3365 OM OM1 3365 -0.550000 15.99940
3366 OM 3366 OM OM1 3366 -0.550000 15.99940
3367 OM 3367 OM OM1 3367 -0.550000 15.99940
3368 OM 3368 OM OM1 3368 -0.550000 15.99940
3369 OM 3369 OM OM1 3369 -0.550000 15.99940
3370 OM 3370 OM OM1 3370 -0.550000 15.99940
3371 OM 3371 OM OM1 3371 -0.550000 15.99940
3372 OM 3372 OM OM1 3372 -0.550000 15.99940
3373 OM 3373 OM OM1 3373 -0.550000 15.99940
3374 OM 3374 OM OM1 3374 -0.550000 15.99940
3375 OM 3375 OM OM1 3375 -0.550000 15.99940
3376 OM 3376 OM OM1 3376 -0.550000 15.99940
3377 OM 3377 OM OM1 3377 -0.550000 15.99940
3378 OM 3378 OM OM1 3378 -0.550000 15.99940
3379 OM 3379 OM OM1 3379 -0.550000 15.99940
3380 OM 3380 OM OM1 3380 -0.550000 15.99940
3381 OM 3381 OM OM1 3381 -0.550000 15.99940
3382 OM 3382 OM OM1 3382 -0.550000 15.99940
3383 OM 3383 OM OM1 3383 -0.550000 15.99940
3384 OM 3384 OM OM1 3384 -0.550000 15.99940
3385 OM 3385 OM OM1 3385 -0.550000 15.99940
3386 OM 3386 OM OM1 3386 -0.550000 15.99940
3387 OM 3387 OM OM1 3387 -0.550000 15.99940
3388 OM 3388 OM OM1 3388 -0.550000 15.99940
3389 OM 3389 OM OM1 3389 -0.550000 15.99940
3390 OM 3390 OM OM1 3390 -0.550000 15.99940
3391 OM 3391 OM OM1 3391 -0.550000 15.99940
3392 OM 3392 OM OM1 3392 -0.550000 15.99940
3393 OM 3393 OM OM1 3393 -0.550000 15.99940
3394 OM 3394 OM OM1 3394 -0.550000 15.99940
3395 OM 3395 OM OM1 3395 -0.550000 15.99940
3396 OM 3396 OM OM1 3396 -0.550000 15.99940
3397 OM 3397 OM OM1 3397 -0.550000 15.99940
3398 OM 3398 OM OM1 3398 -0.550000 15.99940
3399 OM 3399 OM OM1 3399 -0.550000 15.99940
3400 OM 3400 OM OM1 3400 -0.550000 15.99940
3401 OM 3401 OM OM1 3401 -0.550000 15.99940
3402 OM 3402 OM OM1 3402 -0.550000 15.99940
3403 OM 3403 OM OM1 3403 -0.550000 15.99940
3404 OM 3404 OM OM1 3404 -0.550000 15.99940
3405 OM 3405 OM OM1 3405 -0.550000 15.99940
3406 OM 3406 OM OM1 3406 -0.550000 15.99940
3407 OM 3407 OM OM1 3407 -0.550000 15.99940
3408 OM 3408 OM OM1 3408 -0.550000 15.99940
3409 OM 3409 OM OM1 3409 -0.550000 15.99940
3410 OM 3410 OM OM1 3410 -0.550000 15.99940
3411 OM 3411 OM OM1 3411 -0.550000 15.99940
3412 OM 3412 OM OM1 3412 -0.550000 15.99940
3413 OM 3413 OM OM1 3413 -0.550000 15.99940
3414 OM 3414 OM OM1 3414 -0.550000 15.99940
3415 OM 3415 OM OM1 3415 -0.550000 15.99940
3416 OM 3416 OM OM1 3416 -0.550000 15.99940
3417 OM 3417 OM OM1 3417 -0.550000 15.99940
3418 OM 3418 OM OM1 3418 -0.550000 15.99940
3419 OM 3419 OM OM1 3419 -0.550000 15.99940
3420 OM 3420 OM OM1 3420 -0.550000 15.99940
3421 OM 3421 OM OM1 3421 -0.550000 15.99940
3422 OM 3422 OM OM1 3422 -0.550000 15.99940
3423 OM 3423 OM OM1 3423 -0.550000 15.99940
3424 OM 3424 OM OM1 3424 -0.550000 15.99940
3425 OM 3425 OM OM1 3425 -0.550000 15.99940
3426 OM 3426 OM OM1 3426 -0.550000 15.99940
3427 OM 3427 OM OM1 3427 -0.550000 15.99940
3428 OM 3428 OM OM1 3428 -0.550000 15.99940
3429 OM 3429 OM OM1 3429 -0.550000 15.99940
3430 OM 3430 OM OM1 3430 -0.550000 15.99940
3431 OM 3431 OM OM1 3431 -0.550000 15.99940
3432 OM 3432 OM OM1 3432 -0.550000 15.99940
3433 OM 3433 OM OM1 3433 -0.550000 15.99940
3434 OM 3434 OM OM1 3434 -0.550000 15.99940
3435 OM 3435 OM OM1 3435 -0.550000 15.99940
3436 OM 3436 OM OM1 3436 -0.550000 15.99940
3437 OM 3437 OM OM1 3437 -0.550000 15.99940
3438 OM 3438 OM OM1 3438 -0.550000 15.99940
3439 OM 3439 OM OM1 3439 -0.550000 15.99940
3440 OM 3440 OM OM1 3440 -0.550000 15.99940
3441 OM 3441 OM OM1 3441 -0.550000 15.99940
3442 OM 3442 OM OM1 3442 -0.550000 15.99940
3443 OM 3443 OM OM1 3443 -0.550000 15.99940
3444 OM 3444 OM OM1 3444 -0.550000 15.99940
3445 OM 3445 OM OM1 3445 -0.550000 15.99940
3446 OM 3446 OM OM1 3446 -0.550000 15.99940
3447 OM 3447 OM OM1 3447 -0.550000 15.99940
3448 OM 3448 OM OM1 3448 -0.550000 15.99940
3449 OM 3449 OM OM1 3449 -0.550000 15.99940
3450 OM 3450 OM OM1 3450 -0.550000 15.99940
3451 OM 3451 OM OM1 3451 -0.550000 15.99940
3452 OM 3452 OM OM1 3452 -0.550000 15.99940
3453 OM 3453 OM OM1 3453 -0.550000 15.99940
3454 OM 3454 OM OM1 3454 -0.550000 15.99940
3455 OM 3455 OM OM1 3455 -0.550000 15.99940
3456 OM 3456 OM OM1 3456 -0.550000 15.99940
3457 OM 3457 OM OM1 3457 -0.550000 15.99940
3458 OM 3458 OM OM1 3458 -0.550000 15.99940
3459 OM 3459 OM OM1 3459 -0.550000 15.99940
3460 OM 3460 OM OM1 3460 -0.550000 15.99940
3461 OM 3461 OM OM1 3461 -0.550000 15.99940
3462 OM 3462 OM OM1 3462 -0.550000 15.99940
3463 OM 3463 OM OM1 3463 -0.550000 15.99940
3464 OM 3464 OM OM1 3464 -0.550000 15.99940
3465 OM 3465 OM OM1 3465 -0.550000 15.99940
3466 OM 3466 OM OM1 3466 -0.550000 15.99940
3467 OM 3467 OM OM1 3467 -0.550000 15.99940
3468 OM 3468 OM OM1 3468 -0.550000 15.99940
3469 OM 3469 OM OM1 3469 -0.550000 15.99940
3470 OM 3470 OM OM1 3470 -0.550000 15.99940
3471 OM 3471 OM OM1 3471 -0.550000 15.99940
3472 OM 3472 OM OM1 3472 -0.550000 15.99940
3473 OM 3473 OM OM1 3473 -0.550000 15.99940
3474 OM 3474 OM OM1 3474 -0.550000 15.99940
3475 OM 3475 OM OM1 3475 -0.550000 15.99940
3476 OM 3476 OM OM1 3476 -0.550000 15.99940
3477 OM 3477 OM OM1 3477 -0.550000 15.99940
3478 OM 3478 OM OM1 3478 -0.550000 15.99940
3479 OM 3479 OM OM1 3479 -0.550000 15.99940
3480 OM 3480 OM OM1 3480 -0.550000 15.99940
3481 OM 3481 OM OM1 3481 -0.550000 15.99940
3482 OM 3482 OM OM1 3482 -0.550000 15.99940
3483 OM 3483 OM OM1 3483 -0.550000 15.99940
3484 OM 3484 OM OM1 3484 -0.550000 15.99940
3485 OM 3485 OM OM1 3485 -0.550000 15.99940
3486 OM 3486 OM OM1 3486 -0.550000 15.99940
3487 OM 3487 OM OM1 3487 -0.550000 15.99940
3488 OM 3488 OM OM1 3488 -0.550000 15.99940
3489 OM 3489 OM OM1 3489 -0.550000 15.99940
3490 OM 3490 OM OM1 3490 -0.550000 15.99940
3491 OM 3491 OM OM1 3491 -0.550000 15.99940
3492 OM 3492 OM OM1 3492 -0.550000 15.99940
3493 OM 3493 OM OM1 3493 -0.550000 15.99940
3494 OM 3494 OM OM1 3494 -0.550000 15.99940
3495 OM 3495 OM OM1 3495 -0.550000 15.99940
3496 OM 3496 OM OM1 3496 -0.550000 15.99940
3497 OM 3497 OM OM1 3497 -0.550000 15.99940
3498 OM 3498 OM OM1 3498 -0.550000 15.99940
3499 OM 3499 OM OM1 3499 -0.550000 15.99940
3500 OM 3500 OM OM1 3500 -0.550000 15.99940
3501 OM 3501 OM OM1 3501 -0.550000 15.99940
3502 OM 3502 OM OM1 3502 -0.550000 15.99940
3503 OM 3503 OM OM1 3503 -0.550000 15.99940
3504 OM 3504 OM OM1 3504 -0.550000 15.99940
3505 OM 3505 OM OM1 3505 -0.550000 15.99940
3506 OM 3506 OM OM1 3506 -0.550000 15.99940
3507 OM 3507 OM OM1 3507 -0.550000 15.99940
3508 OM 3508 OM OM1 3508 -0.550000 15.99940
3509 OM 3509 OM OM1 3509 -0.550000 15.99940
3510 OM 3510 OM OM1 3510 -0.550000 15.99940
3511 OM 3511 OM OM1 3511 -0.550000 15.99940
3512 OM 3512 OM OM1 3512 -0.550000 15.99940
3513 OM 3513 OM OM1 3513 -0.550000 15.99940
3514 OM 3514 OM OM1 3514 -0.550000 15.99940
3515 OM 3515 OM OM1 3515 -0.550000 15.99940
3516 OM 3516 OM OM1 3516 -0.550000 15.99940
3517 OM 3517 OM OM1 3517 -0.550000 15.99940
3518 OM 3518 OM OM1 3518 -0.550000 15.99940
3519 OM 3519 OM OM1 3519 -0.550000 15.99940
3520 OM 3520 OM OM1 3520 -0.550000 15.99940
3521 OM 3521 OM OM1 3521 -0.550000 15.99940
3522 OM 3522 OM OM1 3522 -0.550000 15.99940
3523 OM 3523 OM OM1 3523 -0.550000 15.99940
3524 OM 3524 OM OM1 3524 -0.550000 15.99940
3525 OM 3525 OM OM1 3525 -0.550000 15.99940
3526 OM 3526 OM OM1 3526 -0.550000 15.99940
3527 OM 3527 OM OM1 3527 -0.550000 15.99940
3528 OM 3528 OM OM1 3528 -0.550000 15.99940
3529 OM 3529 OM OM1 3529 -0.550000 15.99940
3530 OM 3530 OM OM1 3530 -0.550000 15.99940
3531 OM 3531 OM OM1 3531 -0.550000 15.99940
3532 OM 3532 OM OM1 3532 -0.550000 15.99940
3533 OM 3533 OM OM1 3533 -0.550000 15.99940
3534 OM 3534 OM OM1 3534 -0.550000 15.99940
3535 OM 3535 OM OM1 3535 -0.550000 15.99940
3536 OM 3536 OM OM1 3536 -0.550000 15.99940
3537 OM 3537 OM OM1 3537 -0.550000 15.99940
3538 OM 3538 OM OM1 3538 -0.550000 15.99940
3539 OM 3539 OM OM1 3539 -0.550000 15.99940
3540 OM 3540 OM OM1 3540 -0.550000 15.99940
3541 OM 3541 OM OM1 3541 -0.550000 15.99940
3542 OM 3542 OM OM1 3542 -0.550000 15.99940
3543 OM 3543 OM OM1 3543 -0.550000 15.99940
3544 OM 3544 OM OM1 3544 -0.550000 15.99940
3545 OM 3545 OM OM1 3545 -0.550000 15.99940
3546 OM 3546 OM OM1 3546 -0.550000 15.99940
3547 OM 3547 OM OM1 3547 -0.550000 15.99940
3548 OM 3548 OM OM1 3548 -0.550000 15.99940
3549 OM 3549 OM OM1 3549 -0.550000 15.99940
3550 OM 3550 OM OM1 3550 -0.550000 15.99940
3551 OM 3551 OM OM1 3551 -0.550000 15.99940
3552 OM 3552 OM OM1 3552 -0.550000 15.99940
3553 OM 3553 OM OM1 3553 -0.550000 15.99940
3554 OM 3554 OM OM1 3554 -0.550000 15.99940
3555 OM 3555 OM OM1 3555 -0.550000 15.99940
3556 OM 3556 OM OM1 3556 -0.550000 15.99940
3557 OM 3557 OM OM1 3557 -0.550000 15.99940
3558 OM 3558 OM OM1 3558 -0.550000 15.99940
3559 OM 3559 OM OM1 3559 -0.550000 15.99940
3560 OM 3560 OM OM1 3560 -0.550000 15.99940
3561 OM 3561 OM OM1 3561 -0.550000 15.99940
3562 OM 3562 OM OM1 3562 -0.550000 15.99940
3563 OM 3563 OM OM1 3563 -0.550000 15.99940
3564 OM 3564 OM OM1 3564 -0.550000 15.99940
3565 OM 3565 OM OM1 3565 -0.550000 15.99940
3566 OM 3566 OM OM1 3566 -0.550000 15.99940
3567 OM 3567 OM OM1 3567 -0.550000 15.99940
3568 OM 3568 OM OM1 3568 -0.550000 15.99940
3569 OM 3569 OM OM1 3569 -0.550000 15.99940
3570 OM 3570 OM OM1 3570 -0.550000 15.99940
3571 OM 3571 OM OM1 3571 -0.550000 15.99940
3572 OM 3572 OM OM1 3572 -0.550000 15.99940
3573 OM 3573 OM OM1 3573 -0.550000 15.99940
3574 OM 3574 OM OM1 3574 -0.550000 15.99940
3575 OM 3575 OM OM1 3575 -0.550000 15.99940
3576 OM 3576 OM OM1 3576 -0.550000 15.99940
3577 OM 3577 OM OM1 3577 -0.550000 15.99940
3578 OM 3578 OM OM1 3578 -0.550000 15.99940
3579 OM 3579 OM OM1 3579 -0.550000 15.99940
3580 OM 3580 OM OM1 3580 -0.550000 15.99940
3581 OM 3581 OM OM1 3581 -0.550000 15.99940
3582 OM 3582 OM OM1 3582 -0.550000 15.99940
3583 OM 3583 OM OM1 3583 -0.550000 15.99940
3584 OM 3584 OM OM1 3584 -0.550000 15.99940
3585 OM 3585 OM OM1 3585 -0.550000 15.99940
3586 OM 3586 OM OM1 3586 -0.550000 15.99940
3587 OM 3587 OM OM1 3587 -0.550000 15.99940
3588 OM 3588 OM OM1 3588 -0.550000 15.99940
3589 OM 3589 OM OM1 3589 -0.550000 15.99940
3590 OM 3590 OM OM1 3590 -0.550000 15.99940
3591 OM 3591 OM OM1 3591 -0.550000 15.99940
3592 OM 3592 OM OM1 3592 -0.550000 15.99940
3593 OM 3593 OM OM1 3593 -0.550000 15.99940
3594 OM 3594 OM OM1 3594 -0.550000 15.99940
3595 OM 3595 OM OM1 3595 -0.550000 15.99940
3596 OM 3596 OM OM1 3596 -0.550000 15.99940
3597 OM 3597 OM OM1 3597 -0.550000 15.99940
3598 OM 3598 OM OM1 3598 -0.550000 15.99940
3599 OM 3599 OM OM1 3599 -0.550000 15.99940
3600 OM 3600 OM OM1 3600 -0.550000 15.99940
3601 OM 3601 OM OM1 3601 -0.550000 15.99940
3602 OM 3602 OM OM1 3602 -0.550000 15.99940
3603 OM 3603 OM OM1 3603 -0.550000 15.99940
3604 OM 3604 OM OM1 3604 -0.550000 15.99940
3605 OM 3605 OM OM1 3605 -0.550000 15.99940
3606 OM 3606 OM OM1 3606 -0.550000 15.99940
3607 OM 3607 OM OM1 3607 -0.550000 15.99940
3608 OM 3608 OM OM1 3608 -0.550000 15.99940
3609 OM 3609 OM OM1 3609 -0.550000 15.99940
3610 OM 3610 OM OM1 3610 -0.550000 15.99940
3611 OM 3611 OM OM1 3611 -0.550000 15.99940
3612 OM 3612 OM OM1 3612 -0.550000 15.99940
3613 OM 3613 OM OM1 3613 -0.550000 15.99940
3614 OM 3614 OM OM1 3614 -0.550000 15.99940
3615 OM 3615 OM OM1 3615 -0.550000 15.99940
3616 OM 3616 OM OM1 3616 -0.550000 15.99940
3617 OM 3617 OM OM1 3617 -0.550000 15.99940
3618 OM 3618 OM OM1 3618 -0.550000 15.99940
3619 OM 3619 OM OM1 3619 -0.550000 15.99940
3620 OM 3620 OM OM1 3620 -0.550000 15.99940
3621 OM 3621 OM OM1 3621 -0.550000 15.99940
3622 OM 3622 OM OM1 3622 -0.550000 15.99940
3623 OM 3623 OM OM1 3623 -0.550000 15.99940
3624 OM 3624 OM OM1 3624 -0.550000 15.99940
3625 OM 3625 OM OM1 3625 -0.550000 15.99940
3626 OM 3626 OM OM1 3626 -0.550000 15.99940
3627 OM 3627 OM OM1 3627 -0.550000 15.99940
3628 OM 3628 OM OM1 3628 -0.550000 15.99940
3629 OM 3629 OM OM1 3629 -0.550000 15.99940
3630 OM 3630 OM OM1 3630 -0.550000 15.99940
3631 OM 3631 OM OM1 3631 -0.550000 15.99940
3632 OM 3632 OM OM1 3632 -0.550000 15.99940
3633 OM 3633 OM OM1 3633 -0.550000 15.99940
3634 OM 3634 OM OM1 3634 -0.550000 15.99940
3635 OM 3635 OM OM1 3635 -0.550000 15.99940
3636 OM 3636 OM OM1 3636 -0.550000 15.99940
3637 OM 3637 OM OM1 3637 -0.550000 15.99940
3638 OM 3638 OM OM1 3638 -0.550000 15.99940
3639 OM 3639 OM OM1 3639 -0.550000 15.99940
3640 OM 3640 OM OM1 3640 -0.550000 15.99940
3641 OM 3641 OM OM1 3641 -0.550000 15.99940
3642 OM 3642 OM OM1 3642 -0.550000 15.99940
3643 OM 3643 OM OM1 3643 -0.550000 15.99940
3644 OM 3644 OM OM1 3644 -0.550000 15.99940
3645 OM 3645 OM OM1 3645 -0.550000 15.99940
3646 OM 3646 OM OM1 3646 -0.550000 15.99940
3647 OM 3647 OM OM1 3647 -0.550000 15.99940
3648 OM 3648 OM OM1 3648 -0.550000 15.99940
3649 OM 3649 OM OM1 3649 -0.550000 15.99940
3650 OM 3650 OM OM1 3650 -0.550000 15.99940
3651 OM 3651 OM OM1 3651 -0.550000 15.99940
3652 OM 3652 OM OM1 3652 -0.550000 15.99940
3653 OM 3653 OM OM1 3653 -0.550000 15.99940
3654 OM 3654 OM OM1 3654 -0.550000 15.99940
3655 OM 3655 OM OM1 3655 -0.550000 15.99940
3656 OM 3656 OM OM1 3656 -0.550000 15.99940
3657 OM 3657 OM OM1 3657 -0.550000 15.99940
3658 OM 3658 OM OM1 3658 -0.550000 15.99940
3659 OM 3659 OM OM1 3659 -0.550000 15.99940
3660 OM 3660 OM OM1 3660 -0.550000 15.99940
3661 OM 3661 OM OM1 3661 -0.550000 15.99940
3662 OM 3662 OM OM1 3662 -0.550000 15.99940
3663 OM 3663 OM OM1 3663 -0.550000 15.99940
3664 OM 3664 OM OM1 3664 -0.550000 15.99940
3665 OM 3665 OM OM1 3665 -0.550000 15.99940
3666 OM 3666 OM OM1 3666 -0.550000 15.99940
3667 OM 3667 OM OM1 3667 -0.550000 15.99940
3668 OM 3668 OM OM1 3668 -0.550000 15.99940
3669 OM 3669 OM OM1 3669 -0.550000 15.99940
3670 OM 3670 OM OM1 3670 -0.550000 15.99940
3671 OM 3671 OM OM1 3671 -0.550000 15.99940
3672 OM 3672 OM OM1 3672 -0.550000 15.99940
3673 OM 3673 OM OM1 3673 -0.550000 15.99940
3674 OM 3674 OM OM1 3674 -0.550000 15.99940
3675 OM 3675 OM OM1 3675 -0.550000 15.99940
3676 OM 3676 OM OM1 3676 -0.550000 15.99940
3677 OM 3677 OM OM1 3677 -0.550000 15.99940
3678 OM 3678 OM OM1 3678 -0.550000 15.99940
3679 OM 3679 OM OM1 3679 -0.550000 15.99940
3680 OM 3680 OM OM1 3680 -0.550000 15.99940
3681 OM 3681 OM OM1 3681 -0.550000 15.99940
3682 OM 3682 OM OM1 3682 -0.550000 15.99940
3683 OM 3683 OM OM1 3683 -0.550000 15.99940
3684 OM 3684 OM OM1 3684 -0.550000 15.99940
3685 OM 3685 OM OM1 3685 -0.550000 15.99940
3686 OM 3686 OM OM1 3686 -0.550000 15.99940
3687 OM 3687 OM OM1 3687 -0.550000 15.99940
3688 OM 3688 OM OM1 3688 -0.550000 15.99940
3689 OM 3689 OM OM1 3689 -0.550000 15.99940
3690 OM 3690 OM OM1 3690 -0.550000 15.99940
3691 OM 3691 OM OM1 3691 -0.550000 15.99940
3692 OM 3692 OM OM1 3692 -0.550000 15.99940
3693 OM 3693 OM OM1 3693 -0.550000 15.99940
3694 OM 3694 OM OM1 3694 -0.550000 15.99940
3695 OM 3695 OM OM1 3695 -0.550000 15.99940
3696 OM 3696 OM OM1 3696 -0.550000 15.99940
3697 OM 3697 OM OM1 3697 -0.550000 15.99940
3698 OM 3698 OM OM1 3698 -0.550000 15.99940
3699 OM 3699 OM OM1 3699 -0.550000 15.99940
3700 OM 3700 OM OM1 3700 -0.550000 15.99940
3701 OM 3701 OM OM1 3701 -0.550000 15.99940
3702 OM 3702 OM OM1 3702 -0.550000 15.99940
3703 OM 3703 OM OM1 3703 -0.550000 15.99940
3704 OM 3704 OM OM1 3704 -0.550000 15.99940
3705 OM 3705 OM OM1 3705 -0.550000 15.99940
3706 OM 3706 OM OM1 3706 -0.550000 15.99940
3707 OM 3707 OM OM1 3707 -0.550000 15.99940
3708 OM 3708 OM OM1 3708 -0.550000 15.99940
3709 OM 3709 OM OM1 3709 -0.550000 15.99940
3710 OM 3710 OM OM1 3710 -0.550000 15.99940
3711 OM 3711 OM OM1 3711 -0.550000 15.99940
3712 OM 3712 OM OM1 3712 -0.550000 15.99940
3713 OM 3713 OM OM1 3713 -0.550000 15.99940
3714 OM 3714 OM OM1 3714 -0.550000 15.99940
3715 OM 3715 OM OM1 3715 -0.550000 15.99940
3716 OM 3716 OM OM1 3716 -0.550000 15.99940
3717 OM 3717 OM OM1 3717 -0.550000 15.99940
3718 OM 3718 OM OM1 3718 -0.550000 15.99940
3719 OM 3719 OM OM1 3719 -0.550000 15.99940
3720 OM 3720 OM OM1 3720 -0.550000 15.99940
3721 OM 3721 OM OM1 3721 -0.550000 15.99940
3722 OM 3722 OM OM1 3722 -0.550000 15.99940
3723 OM 3723 OM OM1 3723 -0.550000 15.99940
3724 OM 3724 OM OM1 3724 -0.550000 15.99940
3725 OM 3725 OM OM1 3725 -0.550000 15.99940
3726 OM 3726 OM OM1 3726 -0.550000 15.99940
3727 OM 3727 OM OM1 3727 -0.550000 15.99940
3728 OM 3728 OM OM1 3728 -0.550000 15.99940
3729 OM 3729 OM OM1 3729 -0.550000 15.99940
3730 OM 3730 OM OM1 3730 -0.550000 15.99940
3731 OM 3731 OM OM1 3731 -0.550000 15.99940
3732 OM 3732 OM OM1 3732 -0.550000 15.99940
3733 OM 3733 OM OM1 3733 -0.550000 15.99940
3734 OM 3734 OM OM1 3734 -0.550000 15.99940
3735 OM 3735 OM OM1 3735 -0.550000 15.99940
3736 OM 3736 OM OM1 3736 -0.550000 15.99940
3737 OM 3737 OM OM1 3737 -0.550000 15.99940
3738 OM 3738 OM OM1 3738 -0.550000 15.99940
3739 OM 3739 OM OM1 3739 -0.550000 15.99940
3740 OM 3740 OM OM1 3740 -0.550000 15.99940
3741 OM 3741 OM OM1 3741 -0.550000 15.99940
3742 OM 3742 OM OM1 3742 -0.550000 15.99940
3743 OM 3743 OM OM1 3743 -0.550000 15.99940
3744 OM 3744 OM OM1 3744 -0.550000 15.99940
3745 OM 3745 OM OM1 3745 -0.550000 15.99940
3746 OM 3746 OM OM1 3746 -0.550000 15.99940
3747 OM 3747 OM OM1 3747 -0.550000 15.99940
3748 OM 3748 OM OM1 3748 -0.550000 15.99940
3749 OM 3749 OM OM1 3749 -0.550000 15.99940
3750 OM 3750 OM OM1 3750 -0.550000 15.99940
3751 OM 3751 OM OM1 3751 -0.550000 15.99940
3752 OM 3752 OM OM1 3752 -0.550000 15.99940
3753 OM 3753 OM OM1 3753 -0.550000 15.99940
3754 OM 3754 OM OM1 3754 -0.550000 15.99940
3755 OM 3755 OM OM1 3755 -0.550000 15.99940
3756 OM 3756 OM OM1 3756 -0.550000 15.99940
3757 OM 3757 OM OM1 3757 -0.550000 15.99940
3758 OM 3758 OM OM1 3758 -0.550000 15.99940
3759 OM 3759 OM OM1 3759 -0.550000 15.99940
3760 OM 3760 OM OM1 3760 -0.550000 15.99940
3761 OM 3761 OM OM1 3761 -0.550000 15.99940
3762 OM 3762 OM OM1 3762 -0.550000 15.99940
3763 OM 3763 OM OM1 3763 -0.550000 15.99940
3764 OM 3764 OM OM1 3764 -0.550000 15.99940
3765 OM 3765 OM OM1 3765 -0.550000 15.99940
3766 OM 3766 OM OM1 3766 -0.550000 15.99940
3767 OM 3767 OM OM1 3767 -0.550000 15.99940
3768 OM 3768 OM OM1 3768 -0.550000 15.99940
3769 OM 3769 OM OM1 3769 -0.550000 15.99940
3770 OM 3770 OM OM1 3770 -0.550000 15.99940
3771 OM 3771 OM OM1 3771 -0.550000 15.99940
3772 OM 3772 OM OM1 3772 -0.550000 15.99940
3773 OM 3773 OM OM1 3773 -0.550000 15.99940
3774 OM 3774 OM OM1 3774 -0.550000 15.99940
3775 OM 3775 OM OM1 3775 -0.550000 15.99940
3776 OM 3776 OM OM1 3776 -0.550000 15.99940
3777 OM 3777 OM OM1 3777 -0.550000 15.99940
3778 OM 3778 OM OM1 3778 -0.550000 15.99940
3779 OM 3779 OM OM1 3779 -0.550000 15.99940
3780 OM 3780 OM OM1 3780 -0.550000 15.99940
3781 OM 3781 OM OM1 3781 -0.550000 15.99940
3782 OM 3782 OM OM1 3782 -0.550000 15.99940
3783 OM 3783 OM OM1 3783 -0.550000 15.99940
3784 OM 3784 OM OM1 3784 -0.550000 15.99940
3785 OM 3785 OM OM1 3785 -0.550000 15.99940
3786 OM 3786 OM OM1 3786 -0.550000 15.99940
3787 OM 3787 OM OM1 3787 -0.550000 15.99940
3788 OM 3788 OM OM1 3788 -0.550000 15.99940
3789 OM 3789 OM OM1 3789 -0.550000 15.99940
3790 OM 3790 OM OM1 3790 -0.550000 15.99940
3791 OM 3791 OM OM1 3791 -0.550000 15.99940
3792 OM 3792 OM OM1 3792 -0.550000 15.99940
3793 OM 3793 OM OM1 3793 -0.550000 15.99940
3794 OM 3794 OM OM1 3794 -0.550000 15.99940
3795 OM 3795 OM OM1 3795 -0.550000 15.99940
3796 OM 3796 OM OM1 3796 -0.550000 15.99940
3797 OM 3797 OM OM1 3797 -0.550000 15.99940
3798 OM 3798 OM OM1 3798 -0.550000 15.99940
3799 OM 3799 OM OM1 3799 -0.550000 15.99940
3800 OM 3800 OM OM1 3800 -0.550000 15.99940
3801 OM 3801 OM OM1 3801 -0.550000 15.99940
3802 OM 3802 OM OM1 3802 -0.550000 15.99940
3803 OM 3803 OM OM1 3803 -0.550000 15.99940
3804 OM 3804 OM OM1 3804 -0.550000 15.99940
3805 OM 3805 OM OM1 3805 -0.550000 15.99940
3806 OM 3806 OM OM1 3806 -0.550000 15.99940
3807 OM 3807 OM OM1 3807 -0.550000 15.99940
3808 OM 3808 OM OM1 3808 -0.550000 15.99940
3809 OM 3809 OM OM1 3809 -0.550000 15.99940
3810 OM 3810 OM OM1 3810 -0.550000 15.99940
3811 OM 3811 OM OM1 3811 -0.550000 15.99940
3812 OM 3812 OM OM1 3812 -0.550000 15.99940
3813 OM 3813 OM OM1 3813 -0.550000 15.99940
3814 OM 3814 OM OM1 3814 -0.550000 15.99940
3815 OM 3815 OM OM1 3815 -0.550000 15.99940
3816 OM 3816 OM OM1 3816 -0.550000 15.99940
3817 OM 3817 OM OM1 3817 -0.550000 15.99940
3818 OM 3818 OM OM1 3818 -0.550000 15.99940
3819 OM 3819 OM OM1 3819 -0.550000 15.99940
3820 OM 3820 OM OM1 3820 -0.550000 15.99940
3821 OM 3821 OM OM1 3821 -0.550000 15.99940
3822 OM 3822 OM OM1 3822 -0.550000 15.99940
3823 OM 3823 OM OM1 3823 -0.550000 15.99940
3824 OM 3824 OM OM1 3824 -0.550000 15.99940
3825 OM 3825 OM OM1 3825 -0.550000 15.99940
3826 OM 3826 OM OM1 3826 -0.550000 15.99940
3827 OM 3827 OM OM1 3827 -0.550000 15.99940
3828 OM 3828 OM OM1 3828 -0.550000 15.99940
3829 OM 3829 OM OM1 3829 -0.550000 15.99940
3830 OM 3830 OM OM1 3830 -0.550000 15.99940
3831 OM 3831 OM OM1 3831 -0.550000 15.99940
3832 OM 3832 OM OM1 3832 -0.550000 15.99940
3833 OM 3833 OM OM1 3833 -0.550000 15.99940
3834 OM 3834 OM OM1 3834 -0.550000 15.99940
3835 OM 3835 OM OM1 3835 -0.550000 15.99940
3836 OM 3836 OM OM1 3836 -0.550000 15.99940
3837 OM 3837 OM OM1 3837 -0.550000 15.99940
3838 OM 3838 OM OM1 3838 -0.550000 15.99940
3839 OM 3839 OM OM1 3839 -0.550000 15.99940
3840 OM 3840 OM OM1 3840 -0.550000 15.99940
3841 OM 3841 OM OM1 3841 -0.550000 15.99940
3842 OM 3842 OM OM1 3842 -0.550000 15.99940
3843 OM 3843 OM OM1 3843 -0.550000 15.99940
3844 OM 3844 OM OM1 3844 -0.550000 15.99940
3845 OM 3845 OM OM1 3845 -0.550000 15.99940
3846 OM 3846 OM OM1 3846 -0.550000 15.99940
3847 OM 3847 OM OM1 3847 -0.550000 15.99940
3848 OM 3848 OM OM1 3848 -0.550000 15.99940
3849 OM 3849 OM OM1 3849 -0.550000 15.99940
3850 OM 3850 OM OM1 3850 -0.550000 15.99940
3851 OM 3851 OM OM1 3851 -0.550000 15.99940
3852 OM 3852 OM OM1 3852 -0.550000 15.99940
3853 OM 3853 OM OM1 3853 -0.550000 15.99940
3854 OM 3854 OM OM1 3854 -0.550000 15.99940
3855 OM 3855 OM OM1 3855 -0.550000 15.99940
3856 OM 3856 OM OM1 3856 -0.550000 15.99940
3857 OM 3857 OM OM1 3857 -0.550000 15.99940
3858 OM 3858 OM OM1 3858 -0.550000 15.99940
3859 OM 3859 OM OM1 3859 -0.550000 15.99940
3860 OM 3860 OM OM1 3860 -0.550000 15.99940
3861 OM 3861 OM OM1 3861 -0.550000 15.99940
3862 OM 3862 OM OM1 3862 -0.550000 15.99940
3863 OM 3863 OM OM1 3863 -0.550000 15.99940
3864 OM 3864 OM OM1 3864 -0.550000 15.99940
3865 OM 3865 OM OM1 3865 -0.550000 15.99940
3866 OM 3866 OM OM1 3866 -0.550000 15.99940
3867 OM 3867 OM OM1 3867 -0.550000 15.99940
3868 OM 3868 OM OM1 3868 -0.550000 15.99940
3869 OM 3869 OM OM1 3869 -0.550000 15.99940
3870 OM 3870 OM OM1 3870 -0.550000 15.99940
3871 OM 3871 OM OM1 3871 -0.550000 15.99940
3872 OM 3872 OM OM1 3872 -0.550000 15.99940
3873 OM 3873 OM OM1 3873 -0.550000 15.99940
3874 OM 3874 OM OM1 3874 -0.550000 15.99940
3875 OM 3875 OM OM1 3875 -0.550000 15.99940
3876 OM 3876 OM OM1 3876 -0.550000 15.99940
3877 OM 3877 OM OM1 3877 -0.550000 15.99940
3878 OM 3878 OM OM1 3878 -0.550000 15.99940
3879 OM 3879 OM OM1 3879 -0.550000 15.99940
3880 OM 3880 OM OM1 3880 -0.550000 15.99940
3881 OM 3881 OM OM1 3881 -0.550000 15.99940
3882 OM 3882 OM OM1 3882 -0.550000 15.99940
3883 OM 3883 OM OM1 3883 -0.550000 15.99940
3884 OM 3884 OM OM1 3884 -0.550000 15.99940
3885 OM 3885 OM OM1 3885 -0.550000 15.99940
3886 OM 3886 OM OM1 3886 -0.550000 15.99940
3887 OM 3887 OM OM1 3887 -0.550000 15.99940
3888 OM 3888 OM OM1 3888 -0.550000 15.99940
3889 OM 3889 OM OM1 3889 -0.550000 15.99940
3890 OM 3890 OM OM1 3890 -0.550000 15.99940
3891 OM 3891 OM OM1 3891 -0.550000 15.99940
3892 OM 3892 OM OM1 3892 -0.550000 15.99940
3893 OM 3893 OM OM1 3893 -0.550000 15.99940
3894 OM 3894 OM OM1 3894 -0.550000 15.99940
3895 OM 3895 OM OM1 3895 -0.550000 15.99940
3896 OM 3896 OM OM1 3896 -0.550000 15.99940
3897 OM 3897 OM OM1 3897 -0.550000 15.99940
3898 OM 3898 OM OM1 3898 -0.550000 15.99940
3899 OM 3899 OM OM1 3899 -0.550000 15.99940
3900 OM 3900 OM OM1 3900 -0.550000 15.99940
3901 OM 3901 OM OM1 3901 -0.550000 15.99940
3902 OM 3902 OM OM1 3902 -0.550000 15.99940
3903 OM 3903 OM OM1 3903 -0.550000 15.99940
3904 OM 3904 OM OM1 3904 -0.550000 15.99940
3905 OM 3905 OM OM1 3905 -0.550000 15.99940
3906 OM 3906 OM OM1 3906 -0.550000 15.99940
3907 OM 3907 OM OM1 3907 -0.550000 15.99940
3908 OM 3908 OM OM1 3908 -0.550000 15.99940
3909 OM 3909 OM OM1 3909 -0.550000 15.99940
3910 OM 3910 OM OM1 3910 -0.550000 15.99940
3911 OM 3911 OM OM1 3911 -0.550000 15.99940
3912 OM 3912 OM OM1 3912 -0.550000 15.99940
3913 OM 3913 OM OM1 3913 -0.550000 15.99940
3914 OM 3914 OM OM1 3914 -0.550000 15.99940
3915 OM 3915 OM OM1 3915 -0.550000 15.99940
3916 OM 3916 OM OM1 3916 -0.550000 15.99940
3917 OM 3917 OM OM1 3917 -0.550000 15.99940
3918 OM 3918 OM OM1 3918 -0.550000 15.99940
3919 OM 3919 OM OM1 3919 -0.550000 15.99940
3920 OM 3920 OM OM1 3920 -0.550000 15.99940
3921 OM 3921 OM OM1 3921 -0.550000 15.99940
3922 OM 3922 OM OM1 3922 -0.550000 15.99940
3923 OM 3923 OM OM1 3923 -0.550000 15.99940
3924 OM 3924 OM OM1 3924 -0.550000 15.99940
3925 OM 3925 OM OM1 3925 -0.550000 15.99940
3926 OM 3926 OM OM1 3926 -0.550000 15.99940
3927 OM 3927 OM OM1 3927 -0.550000 15.99940
3928 OM 3928 OM OM1 3928 -0.550000 15.99940
3929 OM 3929 OM OM1 3929 -0.550000 15.99940
3930 OM 3930 OM OM1 3930 -0.550000 15.99940
3931 OM 3931 OM OM1 3931 -0.550000 15.99940
3932 OM 3932 OM OM1 3932 -0.550000 15.99940
3933 OM 3933 OM OM1 3933 -0.550000 15.99940
3934 OM 3934 OM OM1 3934 -0.550000 15.99940
3935 OM 3935 OM OM1 3935 -0.550000 15.99940
3936 OM 3936 OM OM1 3936 -0.550000 15.99940
3937 OM 3937 OM OM1 3937 -0.550000 15.99940
3938 OM 3938 OM OM1 3938 -0.550000 15.99940
3939 OM 3939 OM OM1 3939 -0.550000 15.99940
3940 OM 3940 OM OM1 3940 -0.550000 15.99940
3941 OM 3941 OM OM1 3941 -0.550000 15.99940
3942 OM 3942 OM OM1 3942 -0.550000 15.99940
3943 OM 3943 OM OM1 3943 -0.550000 15.99940
3944 OM 3944 OM OM1 3944 -0.550000 15.99940
3945 OM 3945 OM OM1 3945 -0.550000 15.99940
3946 OM 3946 OM OM1 3946 -0.550000 15.99940
3947 OM 3947 OM OM1 3947 -0.550000 15.99940
3948 OM 3948 OM OM1 3948 -0.550000 15.99940
3949 OM 3949 OM OM1 3949 -0.550000 15.99940
3950 OM 3950 OM OM1 3950 -0.550000 15.99940
3951 OM 3951 OM OM1 3951 -0.550000 15.99940
3952 OM 3952 OM OM1 3952 -0.550000 15.99940
3953 OM 3953 OM OM1 3953 -0.550000 15.99940
3954 OM 3954 OM OM1 3954 -0.550000 15.99940
3955 OM 3955 OM OM1 3955 -0.550000 15.99940
3956 OM 3956 OM OM1 3956 -0.550000 15.99940
3957 OM 3957 OM OM1 3957 -0.550000 15.99940
3958 OM 3958 OM OM1 3958 -0.550000 15.99940
3959 OM 3959 OM OM1 3959 -0.550000 15.99940
3960 OM 3960 OM OM1 3960 -0.550000 15.99940
3961 OM 3961 OM OM1 3961 -0.550000 15.99940
3962 OM 3962 OM OM1 3962 -0.550000 15.99940
3963 OM 3963 OM OM1 3963 -0.550000 15.99940
3964 OM 3964 OM OM1 3964 -0.550000 15.99940
3965 OM 3965 OM OM1 3965 -0.550000 15.99940
3966 OM 3966 OM OM1 3966 -0.550000 15.99940
3967 OM 3967 OM OM1 3967 -0.550000 15.99940
3968 OM 3968 OM OM1 3968 -0.550000 15.99940
3969 OM 3969 OM OM1 3969 -0.550000 15.99940
3970 OM 3970 OM OM1 3970 -0.550000 15.99940
3971 OM 3971 OM OM1 3971 -0.550000 15.99940
3972 OM 3972 OM OM1 3972 -0.550000 15.99940
3973 OM 3973 OM OM1 3973 -0.550000 15.99940
3974 OM 3974 OM OM1 3974 -0.550000 15.99940
3975 OM 3975 OM OM1 3975 -0.550000 15.99940
3976 OM 3976 OM OM1 3976 -0.550000 15.99940
3977 OM 3977 OM OM1 3977 -0.550000 15.99940
3978 OM 3978 OM OM1 3978 -0.550000 15.99940
3979 OM 3979 OM OM1 3979 -0.550000 15.99940
3980 OM 3980 OM OM1 3980 -0.550000 15.99940
3981 OM 3981 OM OM1 3981 -0.550000 15.99940
3982 OM 3982 OM OM1 3982 -0.550000 15.99940
3983 OM 3983 OM OM1 3983 -0.550000 15.99940
3984 OM 3984 OM OM1 3984 -0.550000 15.99940
3985 OM 3985 OM OM1 3985 -0.550000 15.99940
3986 OM 3986 OM OM1 3986 -0.550000 15.99940
3987 OM 3987 OM OM1 3987 -0.550000 15.99940
3988 OM 3988 OM OM1 3988 -0.550000 15.99940
3989 OM 3989 OM OM1 3989 -0.550000 15.99940
3990 OM 3990 OM OM1 3990 -0.550000 15.99940
3991 OM 3991 OM OM1 3991 -0.550000 15.99940
3992 OM 3992 OM OM1 3992 -0.550000 15.99940
3993 OM 3993 OM OM1 3993 -0.550000 15.99940
3994 OM 3994 OM OM1 3994 -0.550000 15.99940
3995 OM 3995 OM OM1 3995 -0.550000 15.99940
3996 OM 3996 OM OM1 3996 -0.550000 15.99940
3997 OM 3997 OM OM1 3997 -0.550000 15.99940
3998 OM 3998 OM OM1 3998 -0.550000 15.99940
3999 OM 3999 OM OM1 3999 -0.550000 15.99940
4000 OM 4000 OM OM1 4000 -0.550000 15.99940
4001 OM 4001 OM OM1 4001 -0.550000 15.99940
4002 OM 4002 OM OM1 4002 -0.550000 15.99940
4003 OM 4003 OM OM1 4003 -0.550000 15.99940
4004 OM 4004 OM OM1 4004 -0.550000 15.99940
4005 OM 4005 OM OM1 4005 -0.550000 15.99940
4006 OM 4006 OM OM1 4006 -0.550000 15.99940
4007 OM 4007 OM OM1 4007 -0.550000 15.99940
4008 OM 4008 OM OM1 4008 -0.550000 15.99940
4009 OM 4009 OM OM1 4009 -0.550000 15.99940
4010 OM 4010 OM OM1 4010 -0.550000 15.99940
4011 OM 4011 OM OM1 4011 -0.550000 15.99940
4012 OM 4012 OM OM1 4012 -0.550000 15.99940
4013 OM 4013 OM OM1 4013 -0.550000 15.99940
4014 OM 4014 OM OM1 4014 -0.550000 15.99940
4015 OM 4015 OM OM1 4015 -0.550000 15.99940
4016 OM 4016 OM OM1 4016 -0.550000 15.99940
4017 OM 4017 OM OM1 4017 -0.550000 15.99940
4018 OM 4018 OM OM1 4018 -0.550000 15.99940
4019 OM 4019 OM OM1 4019 -0.550000 15.99940
4020 OM 4020 OM OM1 4020 -0.550000 15.99940
4021 OM 4021 OM OM1 4021 -0.550000 15.99940
4022 OM 4022 OM OM1 4022 -0.550000 15.99940
4023 OM 4023 OM OM1 4023 -0.550000 15.99940
4024 OM 4024 OM OM1 4024 -0.550000 15.99940
4025 OM 4025 OM OM1 4025 -0.550000 15.99940
4026 OM 4026 OM OM1 4026 -0.550000 15.99940
4027 OM 4027 OM OM1 4027 -0.550000 15.99940
4028 OM 4028 OM OM1 4028 -0.550000 15.99940
4029 OM 4029 OM OM1 4029 -0.550000 15.99940
4030 OM 4030 OM OM1 4030 -0.550000 15.99940
4031 OM 4031 OM OM1 4031 -0.550000 15.99940
4032 OM 4032 OM OM1 4032 -0.550000 15.99940
4033 OM 4033 OM OM1 4033 -0.550000 15.99940
4034 OM 4034 OM OM1 4034 -0.550000 15.99940
4035 OM 4035 OM OM1 4035 -0.550000 15.99940
4036 OM 4036 OM OM1 4036 -0.550000 15.99940
4037 OM 4037 OM OM1 4037 -0.550000 15.99940
4038 OM 4038 OM OM1 4038 -0.550000 15.99940
4039 OM 4039 OM OM1 4039 -0.550000 15.99940
4040 OM 4040 OM OM1 4040 -0.550000 15.99940
4041 OM 4041 OM OM1 4041 -0.550000 15.99940
4042 OM 4042 OM OM1 4042 -0.550000 15.99940
4043 OM 4043 OM OM1 4043 -0.550000 15.99940
4044 OM 4044 OM OM1 4044 -0.550000 15.99940
4045 OM 4045 OM OM1 4045 -0.550000 15.99940
4046 OM 4046 OM OM1 4046 -0.550000 15.99940
4047 OM 4047 OM OM1 4047 -0.550000 15.99940
4048 OM 4048 OM OM1 4048 -0.550000 15.99940
4049 OM 4049 OM OM1 4049 -0.550000 15.99940
4050 OM 4050 OM OM1 4050 -0.550000 15.99940
4051 OM 4051 OM OM1 4051 -0.550000 15.99940
4052 OM 4052 OM OM1 4052 -0.550000 15.99940
4053 OM 4053 OM OM1 4053 -0.550000 15.99940
4054 OM 4054 OM OM1 4054 -0.550000 15.99940
4055 OM 4055 OM OM1 4055 -0.550000 15.99940
4056 OM 4056 OM OM1 4056 -0.550000 15.99940
4057 OM 4057 OM OM1 4057 -0.550000 15.99940
4058 OM 4058 OM OM1 4058 -0.550000 15.99940
4059 OM 4059 OM OM1 4059 -0.550000 15.99940
4060 OM 4060 OM OM1 4060 -0.550000 15.99940
4061 OM 4061 OM OM1 4061 -0.550000 15.99940
4062 OM 4062 OM OM1 4062 -0.550000 15.99940
4063 OM 4063 OM OM1 4063 -0.550000 15.99940
4064 OM 4064 OM OM1 4064 -0.550000 15.99940
4065 OM 4065 OM OM1 4065 -0.550000 15.99940
4066 OM 4066 OM OM1 4066 -0.550000 15.99940
4067 OM 4067 OM OM1 4067 -0.550000 15.99940
4068 OM 4068 OM OM1 4068 -0.550000 15.99940
4069 OM 4069 OM OM1 4069 -0.550000 15.99940
4070 OM 4070 OM OM1 4070 -0.550000 15.99940
4071 OM 4071 OM OM1 4071 -0.550000 15.99940
4072 OM 4072 OM OM1 4072 -0.550000 15.99940
4073 OM 4073 OM OM1 4073 -0.550000 15.99940
4074 OM 4074 OM OM1 4074 -0.550000 15.99940
4075 OM 4075 OM OM1 4075 -0.550000 15.99940
4076 OM 4076 OM OM1 4076 -0.550000 15.99940
4077 OM 4077 OM OM1 4077 -0.550000 15.99940
4078 OM 4078 OM OM1 4078 -0.550000 15.99940
4079 OM 4079 OM OM1 4079 -0.550000 15.99940
4080 OM 4080 OM OM1 4080 -0.550000 15.99940
4081 OM 4081 OM OM1 4081 -0.550000 15.99940
4082 OM 4082 OM OM1 4082 -0.550000 15.99940
4083 OM 4083 OM OM1 4083 -0.550000 15.99940
4084 OM 4084 OM OM1 4084 -0.550000 15.99940
4085 OM 4085 OM OM1 4085 -0.550000 15.99940
4086 OM 4086 OM OM1 4086 -0.550000 15.99940
4087 OM 4087 OM OM1 4087 -0.550000 15.99940
4088 OM 4088 OM OM1 4088 -0.550000 15.99940
4089 OM 4089 OM OM1 4089 -0.550000 15.99940
4090 OM 4090 OM OM1 4090 -0.550000 15.99940
4091 OM 4091 OM OM1 4091 -0.550000 15.99940
4092 OM 4092 OM OM1 4092 -0.550000 15.99940
4093 OM 4093 OM OM1 4093 -0.550000 15.99940
4094 OM 4094 OM OM1 4094 -0.550000 15.99940
4095 OM 4095 OM OM1 4095 -0.550000 15.99940
4096 OM 4096 OM OM1 4096 -0.550000 15.99940
4097 OM 4097 OM OM1 4097 -0.550000 15.99940
4098 OM 4098 OM OM1 4098 -0.550000 15.99940
4099 OM 4099 OM OM1 4099 -0.550000 15.99940
4100 OM 4100 OM OM1 4100 -0.550000 15.99940
4101 OM 4101 OM OM1 4101 -0.550000 15.99940
4102 OM 4102 OM OM1 4102 -0.550000 15.99940
4103 OM 4103 OM OM1 4103 -0.550000 15.99940
4104 OM 4104 OM OM1 4104 -0.550000 15.99940
4105 OM 4105 OM OM1 4105 -0.550000 15.99940
4106 OM 4106 OM OM1 4106 -0.550000 15.99940
4107 OM 4107 OM OM1 4107 -0.550000 15.99940
4108 OM 4108 OM OM1 4108 -0.550000 15.99940
4109 OM 4109 OM OM1 4109 -0.550000 15.99940
4110 OM 4110 OM OM1 4110 -0.550000 15.99940
4111 OM 4111 OM OM1 4111 -0.550000 15.99940
4112 OM 4112 OM OM1 4112 -0.550000 15.99940
4113 OM 4113 OM OM1 4113 -0.550000 15.99940
4114 OM 4114 OM OM1 4114 -0.550000 15.99940
4115 OM 4115 OM OM1 4115 -0.550000 15.99940
4116 OM 4116 OM OM1 4116 -0.550000 15.99940
4117 OM 4117 OM OM1 4117 -0.550000 15.99940
4118 OM 4118 OM OM1 4118 -0.550000 15.99940
4119 OM 4119 OM OM1 4119 -0.550000 15.99940
4120 OM 4120 OM OM1 4120 -0.550000 15.99940
4121 OM 4121 OM OM1 4121 -0.550000 15.99940
4122 OM 4122 OM OM1 4122 -0.550000 15.99940
4123 OM 4123 OM OM1 4123 -0.550000 15.99940
4124 OM 4124 OM OM1 4124 -0.550000 15.99940
4125 OM 4125 OM OM1 4125 -0.550000 15.99940
4126 OM 4126 OM OM1 4126 -0.550000 15.99940
4127 OM 4127 OM OM1 4127 -0.550000 15.99940
4128 OM 4128 OM OM1 4128 -0.550000 15.99940
4129 OM 4129 OM OM1 4129 -0.550000 15.99940
4130 OM 4130 OM OM1 4130 -0.550000 15.99940
4131 OM 4131 OM OM1 4131 -0.550000 15.99940
4132 OM 4132 OM OM1 4132 -0.550000 15.99940
4133 OM 4133 OM OM1 4133 -0.550000 15.99940
4134 OM 4134 OM OM1 4134 -0.550000 15.99940
4135 OM 4135 OM OM1 4135 -0.550000 15.99940
4136 OM 4136 OM OM1 4136 -0.550000 15.99940
4137 OM 4137 OM OM1 4137 -0.550000 15.99940
4138 OM 4138 OM OM1 4138 -0.550000 15.99940
4139 OM 4139 OM OM1 4139 -0.550000 15.99940
4140 OM 4140 OM OM1 4140 -0.550000 15.99940
4141 OM 4141 OM OM1 4141 -0.550000 15.99940
4142 OM 4142 OM OM1 4142 -0.550000 15.99940
4143 OM 4143 OM OM1 4143 -0.550000 15.99940
4144 OM 4144 OM OM1 4144 -0.550000 15.99940
4145 OM 4145 OM OM1 4145 -0.550000 15.99940
4146 OM 4146 OM OM1 4146 -0.550000 15.99940
4147 OM 4147 OM OM1 4147 -0.550000 15.99940
4148 OM 4148 OM OM1 4148 -0.550000 15.99940
4149 OM 4149 OM OM1 4149 -0.550000 15.99940
4150 OM 4150 OM OM1 4150 -0.550000 15.99940
4151 OM 4151 OM OM1 4151 -0.550000 15.99940
4152 OM 4152 OM OM1 4152 -0.550000 15.99940
4153 OM 4153 OM OM1 4153 -0.550000 15.99940
4154 OM 4154 OM OM1 4154 -0.550000 15.99940
4155 OM 4155 OM OM1 4155 -0.550000 15.99940
4156 OM 4156 OM OM1 4156 -0.550000 15.99940
4157 OM 4157 OM OM1 4157 -0.550000 15.99940
4158 OM 4158 OM OM1 4158 -0.550000 15.99940
4159 OM 4159 OM OM1 4159 -0.550000 15.99940
4160 OM 4160 OM OM1 4160 -0.550000 15.99940
4161 OM 4161 OM OM1 4161 -0.550000 15.99940
4162 OM 4162 OM OM1 4162 -0.550000 15.99940
4163 OM 4163 OM OM1 4163 -0.550000 15.99940
4164 OM 4164 OM OM1 4164 -0.550000 15.99940
4165 OM 4165 OM OM1 4165 -0.550000 15.99940
4166 OM 4166 OM OM1 4166 -0.550000 15.99940
4167 OM 4167 OM OM1 4167 -0.550000 15.99940
4168 OM 4168 OM OM1 4168 -0.550000 15.99940
4169 OM 4169 OM OM1 4169 -0.550000 15.99940
4170 OM 4170 OM OM1 4170 -0.550000 15.99940
4171 OM 4171 OM OM1 4171 -0.550000 15.99940
4172 OM 4172 OM OM1 4172 -0.550000 15.99940
4173 OM 4173 OM OM1 4173 -0.550000 15.99940
4174 OM 4174 OM OM1 4174 -0.550000 15.99940
4175 OM 4175 OM OM1 4175 -0.550000 15.99940
4176 OM 4176 OM OM1 4176 -0.550000 15.99940
4177 OM 4177 OM OM1 4177 -0.550000 15.99940
4178 OM 4178 OM OM1 4178 -0.550000 15.99940
4179 OM 4179 OM OM1 4179 -0.550000 15.99940
4180 OM 4180 OM OM1 4180 -0.550000 15.99940
4181 OM 4181 OM OM1 4181 -0.550000 15.99940
4182 OM 4182 OM OM1 4182 -0.550000 15.99940
4183 OM 4183 OM OM1 4183 -0.550000 15.99940
4184 OM 4184 OM OM1 4184 -0.550000 15.99940
4185 OM 4185 OM OM1 4185 -0.550000 15.99940
4186 OM 4186 OM OM1 4186 -0.550000 15.99940
4187 OM 4187 OM OM1 4187 -0.550000 15.99940
4188 OM 4188 OM OM1 4188 -0.550000 15.99940
4189 OM 4189 OM OM1 4189 -0.550000 15.99940
4190 OM 4190 OM OM1 4190 -0.550000 15.99940
4191 OM 4191 OM OM1 4191 -0.550000 15.99940
4192 OM 4192 OM OM1 4192 -0.550000 15.99940
4193 OM 4193 OM OM1 4193 -0.550000 15.99940
4194 OM 4194 OM OM1 4194 -0.550000 15.99940
4195 OM 4195 OM OM1 4195 -0.550000 15.99940
4196 OM 4196 OM OM1 4196 -0.550000 15.99940
4197 OM 4197 OM OM1 4197 -0.550000 15.99940
4198 OM 4198 OM OM1 4198 -0.550000 15.99940
4199 OM 4199 OM OM1 4199 -0.550000 15.99940
4200 OM 4200 OM OM1 4200 -0.550000 15.99940
4201 OM 4201 OM OM1 4201 -0.550000 15.99940
4202 OM 4202 OM OM1 4202 -0.550000 15.99940
4203 OM 4203 OM OM1 4203 -0.550000 15.99940
4204 OM 4204 OM OM1 4204 -0.550000 15.99940
4205 OM 4205 OM OM1 4205 -0.550000 15.99940
4206 OM 4206 OM OM1 4206 -0.550000 15.99940
4207 OM 4207 OM OM1 4207 -0.550000 15.99940
4208 OM 4208 OM OM1 4208 -0.550000 15.99940
4209 OM 4209 OM OM1 4209 -0.550000 15.99940
4210 OM 4210 OM OM1 4210 -0.550000 15.99940
4211 OM 4211 OM OM1 4211 -0.550000 15.99940
4212 OM 4212 OM OM1 4212 -0.550000 15.99940
4213 OM 4213 OM OM1 4213 -0.550000 15.99940
4214 OM 4214 OM OM1 4214 -0.550000 15.99940
4215 OM 4215 OM OM1 4215 -0.550000 15.99940
4216 OM 4216 OM OM1 4216 -0.550000 15.99940
4217 OM 4217 OM OM1 4217 -0.550000 15.99940
4218 OM 4218 OM OM1 4218 -0.550000 15.99940
4219 OM 4219 OM OM1 4219 -0.550000 15.99940
4220 OM 4220 OM OM1 4220 -0.550000 15.99940
4221 OM 4221 OM OM1 4221 -0.550000 15.99940
4222 OM 4222 OM OM1 4222 -0.550000 15.99940
4223 OM 4223 OM OM1 4223 -0.550000 15.99940
4224 OM 4224 OM OM1 4224 -0.550000 15.99940
4225 OM 4225 OM OM1 4225 -0.550000 15.99940
4226 OM 4226 OM OM1 4226 -0.550000 15.99940
4227 OM 4227 OM OM1 4227 -0.550000 15.99940
4228 OM 4228 OM OM1 4228 -0.550000 15.99940
4229 OM 4229 OM OM1 4229 -0.550000 15.99940
4230 OM 4230 OM OM1 4230 -0.550000 15.99940
4231 OM 4231 OM OM1 4231 -0.550000 15.99940
4232 OM 4232 OM OM1 4232 -0.550000 15.99940
4233 OM 4233 OM OM1 4233 -0.550000 15.99940
4234 OM 4234 OM OM1 4234 -0.550000 15.99940
4235 OM 4235 OM OM1 4235 -0.550000 15.99940
4236 OM 4236 OM OM1 4236 -0.550000 15.99940
4237 OM 4237 OM OM1 4237 -0.550000 15.99940
4238 OM 4238 OM OM1 4238 -0.550000 15.99940
4239 OM 4239 OM OM1 4239 -0.550000 15.99940
4240 OM 4240 OM OM1 4240 -0.550000 15.99940
4241 OM 4241 OM OM1 4241 -0.550000 15.99940
4242 OM 4242 OM OM1 4242 -0.550000 15.99940
4243 OM 4243 OM OM1 4243 -0.550000 15.99940
4244 OM 4244 OM OM1 4244 -0.550000 15.99940
4245 OM 4245 OM OM1 4245 -0.550000 15.99940
4246 OM 4246 OM OM1 4246 -0.550000 15.99940
4247 OM 4247 OM OM1 4247 -0.550000 15.99940
4248 OM 4248 OM OM1 4248 -0.550000 15.99940
4249 OM 4249 OM OM1 4249 -0.550000 15.99940
4250 OM 4250 OM OM1 4250 -0.550000 15.99940
4251 OM 4251 OM OM1 4251 -0.550000 15.99940
4252 OM 4252 OM OM1 4252 -0.550000 15.99940
4253 OM 4253 OM OM1 4253 -0.550000 15.99940
4254 OM 4254 OM OM1 4254 -0.550000 15.99940
4255 OM 4255 OM OM1 4255 -0.550000 15.99940
4256 OM 4256 OM OM1 4256 -0.550000 15.99940
4257 OM 4257 OM OM1 4257 -0.550000 15.99940
4258 OM 4258 OM OM1 4258 -0.550000 15.99940
4259 OM 4259 OM OM1 4259 -0.550000 15.99940
4260 OM 4260 OM OM1 4260 -0.550000 15.99940
4261 OM 4261 OM OM1 4261 -0.550000 15.99940
4262 OM 4262 OM OM1 4262 -0.550000 15.99940
4263 OM 4263 OM OM1 4263 -0.550000 15.99940
4264 OM 4264 OM OM1 4264 -0.550000 15.99940
4265 OM 4265 OM OM1 4265 -0.550000 15.99940
4266 OM 4266 OM OM1 4266 -0.550000 15.99940
4267 OM 4267 OM OM1 4267 -0.550000 15.99940
4268 OM 4268 OM OM1 4268 -0.550000 15.99940
4269 OM 4269 OM OM1 4269 -0.550000 15.99940
4270 OM 4270 OM OM1 4270 -0.550000 15.99940
4271 OM 4271 OM OM1 4271 -0.550000 15.99940
4272 OM 4272 OM OM1 4272 -0.550000 15.99940
4273 OM 4273 OM OM1 4273 -0.550000 15.99940
4274 OM 4274 OM OM1 4274 -0.550000 15.99940
4275 OM 4275 OM OM1 4275 -0.550000 15.99940
4276 OM 4276 OM OM1 4276 -0.550000 15.99940
4277 OM 4277 OM OM1 4277 -0.550000 15.99940
4278 OM 4278 OM OM1 4278 -0.550000 15.99940
4279 OM 4279 OM OM1 4279 -0.550000 15.99940
4280 OM 4280 OM OM1 4280 -0.550000 15.99940
4281 OM 4281 OM OM1 4281 -0.550000 15.99940
4282 OM 4282 OM OM1 4282 -0.550000 15.99940
4283 OM 4283 OM OM1 4283 -0.550000 15.99940
4284 OM 4284 OM OM1 4284 -0.550000 15.99940
4285 OM 4285 OM OM1 4285 -0.550000 15.99940
4286 OM 4286 OM OM1 4286 -0.550000 15.99940
4287 OM 4287 OM OM1 4287 -0.550000 15.99940
4288 OM 4288 OM OM1 4288 -0.550000 15.99940
4289 OM 4289 OM OM1 4289 -0.550000 15.99940
4290 OM 4290 OM OM1 4290 -0.550000 15.99940
4291 OM 4291 OM OM1 4291 -0.550000 15.99940
4292 OM 4292 OM OM1 4292 -0.550000 15.99940
4293 OM 4293 OM OM1 4293 -0.550000 15.99940
4294 OM 4294 OM OM1 4294 -0.550000 15.99940
4295 OM 4295 OM OM1 4295 -0.550000 15.99940
4296 OM 4296 OM OM1 4296 -0.550000 15.99940
4297 OM 4297 OM OM1 4297 -0.550000 15.99940
4298 OM 4298 OM OM1 4298 -0.550000 15.99940
4299 OM 4299 OM OM1 4299 -0.550000 15.99940
4300 OM 4300 OM OM1 4300 -0.550000 15.99940
4301 OM 4301 OM OM1 4301 -0.550000 15.99940
4302 OM 4302 OM OM1 4302 -0.550000 15.99940
4303 OM 4303 OM OM1 4303 -0.550000 15.99940
4304 OM 4304 OM OM1 4304 -0.550000 15.99940
4305 OM 4305 OM OM1 4305 -0.550000 15.99940
4306 OM 4306 OM OM1 4306 -0.550000 15.99940
4307 OM 4307 OM OM1 4307 -0.550000 15.99940
4308 OM 4308 OM OM1 4308 -0.550000 15.99940
4309 OM 4309 OM OM1 4309 -0.550000 15.99940
4310 OM 4310 OM OM1 4310 -0.550000 15.99940
4311 OM 4311 OM OM1 4311 -0.550000 15.99940
4312 OM 4312 OM OM1 4312 -0.550000 15.99940
4313 OM 4313 OM OM1 4313 -0.550000 15.99940
4314 OM 4314 OM OM1 4314 -0.550000 15.99940
4315 OM 4315 OM OM1 4315 -0.550000 15.99940
4316 OM 4316 OM OM1 4316 -0.550000 15.99940
4317 OM 4317 OM OM1 4317 -0.550000 15.99940
4318 OM 4318 OM OM1 4318 -0.550000 15.99940
4319 OM 4319 OM OM1 4319 -0.550000 15.99940
4320 OM 4320 OM OM1 4320 -0.550000 15.99940
4321 OM 4321 OM OM1 4321 -0.550000 15.99940
4322 OM 4322 OM OM1 4322 -0.550000 15.99940
4323 OM 4323 OM OM1 4323 -0.550000 15.99940
4324 OM 4324 OM OM1 4324 -0.550000 15.99940
4325 OM 4325 OM OM1 4325 -0.550000 15.99940
4326 OM 4326 OM OM1 4326 -0.550000 15.99940
4327 OM 4327 OM OM1 4327 -0.550000 15.99940
4328 OM 4328 OM OM1 4328 -0.550000 15.99940
4329 OM 4329 OM OM1 4329 -0.550000 15.99940
4330 OM 4330 OM OM1 4330 -0.550000 15.99940
4331 OM 4331 OM OM1 4331 -0.550000 15.99940
4332 OM 4332 OM OM1 4332 -0.550000 15.99940
4333 OM 4333 OM OM1 4333 -0.550000 15.99940
4334 OM 4334 OM OM1 4334 -0.550000 15.99940
4335 OM 4335 OM OM1 4335 -0.550000 15.99940
4336 OM 4336 OM OM1 4336 -0.550000 15.99940
4337 OM 4337 OM OM1 4337 -0.550000 15.99940
4338 OM 4338 OM OM1 4338 -0.550000 15.99940
4339 OM 4339 OM OM1 4339 -0.550000 15.99940
4340 OM 4340 OM OM1 4340 -0.550000 15.99940
4341 OM 4341 OM OM1 4341 -0.550000 15.99940
4342 OM 4342 OM OM1 4342 -0.550000 15.99940
4343 OM 4343 OM OM1 4343 -0.550000 15.99940
4344 OM 4344 OM OM1 4344 -0.550000 15.99940
4345 OM 4345 OM OM1 4345 -0.550000 15.99940
4346 OM 4346 OM OM1 4346 -0.550000 15.99940
4347 OM 4347 OM OM1 4347 -0.550000 15.99940
4348 OM 4348 OM OM1 4348 -0.550000 15.99940
4349 OM 4349 OM OM1 4349 -0.550000 15.99940
4350 OM 4350 OM OM1 4350 -0.550000 15.99940
4351 OM 4351 OM OM1 4351 -0.550000 15.99940
4352 OM 4352 OM OM1 4352 -0.550000 15.99940
4353 OM 4353 OM OM1 4353 -0.550000 15.99940
4354 OM 4354 OM OM1 4354 -0.550000 15.99940
4355 OM 4355 OM OM1 4355 -0.550000 15.99940
4356 OM 4356 OM OM1 4356 -0.550000 15.99940
4357 OM 4357 OM OM1 4357 -0.550000 15.99940
4358 OM 4358 OM OM1 4358 -0.550000 15.99940
4359 OM 4359 OM OM1 4359 -0.550000 15.99940
4360 OM 4360 OM OM1 4360 -0.550000 15.99940
4361 OM 4361 OM OM1 4361 -0.550000 15.99940
4362 OM 4362 OM OM1 4362 -0.550000 15.99940
4363 OM 4363 OM OM1 4363 -0.550000 15.99940
4364 OM 4364 OM OM1 4364 -0.550000 15.99940
4365 OM 4365 OM OM1 4365 -0.550000 15.99940
4366 OM 4366 OM OM1 4366 -0.550000 15.99940
4367 OM 4367 OM OM1 4367 -0.550000 15.99940
4368 OM 4368 OM OM1 4368 -0.550000 15.99940
4369 OM 4369 OM OM1 4369 -0.550000 15.99940
4370 OM 4370 OM OM1 4370 -0.550000 15.99940
4371 OM 4371 OM OM1 4371 -0.550000 15.99940
4372 OM 4372 OM OM1 4372 -0.550000 15.99940
4373 OM 4373 OM OM1 4373 -0.550000 15.99940
4374 OM 4374 OM OM1 4374 -0.550000 15.99940
4375 OM 4375 OM OM1 4375 -0.550000 15.99940
4376 OM 4376 OM OM1 4376 -0.550000 15.99940
4377 OM 4377 OM OM1 4377 -0.550000 15.99940
4378 OM 4378 OM OM1 4378 -0.550000 15.99940
4379 OM 4379 OM OM1 4379 -0.550000 15.99940
4380 OM 4380 OM OM1 4380 -0.550000 15.99940
4381 OM 4381 OM OM1 4381 -0.550000 15.99940
4382 OM 4382 OM OM1 4382 -0.550000 15.99940
4383 OM 4383 OM OM1 4383 -0.550000 15.99940
4384 OM 4384 OM OM1 4384 -0.550000 15.99940
4385 OM 4385 OM OM1 4385 -0.550000 15.99940
4386 OM 4386 OM OM1 4386 -0.550000 15.99940
4387 OM 4387 OM OM1 4387 -0.550000 15.99940
4388 OM 4388 OM OM1 4388 -0.550000 15.99940
4389 OM 4389 OM OM1 4389 -0.550000 15.99940
4390 OM 4390 OM OM1 4390 -0.550000 15.99940
4391 OM 4391 OM OM1 4391 -0.550000 15.99940
4392 OM 4392 OM OM1 4392 -0.550000 15.99940
4393 OM 4393 OM OM1 4393 -0.550000 15.99940
4394 OM 4394 OM OM1 4394 -0.550000 15.99940
4395 OM 4395 OM OM1 4395 -0.550000 15.99940
4396 OM 4396 OM OM1 4396 -0.550000 15.99940
4397 OM 4397 OM OM1 4397 -0.550000 15.99940
4398 OM 4398 OM OM1 4398 -0.550000 15.99940
4399 OM 4399 OM OM1 4399 -0.550000 15.99940
4400 OM 4400 OM OM1 4400 -0.550000 15.99940
4401 OM 4401 OM OM1 4401 -0.550000 15.99940
4402 OM 4402 OM OM1 4402 -0.550000 15.99940
4403 OM 4403 OM OM1 4403 -0.550000 15.99940
4404 OM 4404 OM OM1 4404 -0.550000 15.99940
4405 OM 4405 OM OM1 4405 -0.550000 15.99940
4406 OM 4406 OM OM1 4406 -0.550000 15.99940
4407 OM 4407 OM OM1 4407 -0.550000 15.99940
4408 OM 4408 OM OM1 4408 -0.550000 15.99940
4409 OM 4409 OM OM1 4409 -0.550000 15.99940
4410 OM 4410 OM OM1 4410 -0.550000 15.99940
4411 OM 4411 OM OM1 4411 -0.550000 15.99940
4412 OM 4412 OM OM1 4412 -0.550000 15.99940
4413 OM 4413 OM OM1 4413 -0.550000 15.99940
4414 OM 4414 OM OM1 4414 -0.550000 15.99940
4415 OM 4415 OM OM1 4415 -0.550000 15.99940
4416 OM 4416 OM OM1 4416 -0.550000 15.99940
4417 OM 4417 OM OM1 4417 -0.550000 15.99940
4418 OM 4418 OM OM1 4418 -0.550000 15.99940
4419 OM 4419 OM OM1 4419 -0.550000 15.99940
4420 OM 4420 OM OM1 4420 -0.550000 15.99940
4421 OM 4421 OM OM1 4421 -0.550000 15.99940
4422 OM 4422 OM OM1 4422 -0.550000 15.99940
4423 OM 4423 OM OM1 4423 -0.550000 15.99940
4424 OM 4424 OM OM1 4424 -0.550000 15.99940
4425 OM 4425 OM OM1 4425 -0.550000 15.99940
4426 OM 4426 OM OM1 4426 -0.550000 15.99940
4427 OM 4427 OM OM1 4427 -0.550000 15.99940
4428 OM 4428 OM OM1 4428 -0.550000 15.99940
4429 OM 4429 OM OM1 4429 -0.550000 15.99940
4430 OM 4430 OM OM1 4430 -0.550000 15.99940
4431 OM 4431 OM OM1 4431 -0.550000 15.99940
4432 OM 4432 OM OM1 4432 -0.550000 15.99940
4433 OM 4433 OM OM1 4433 -0.550000 15.99940
4434 OM 4434 OM OM1 4434 -0.550000 15.99940
4435 OM 4435 OM OM1 4435 -0.550000 15.99940
4436 OM 4436 OM OM1 4436 -0.550000 15.99940
4437 OM 4437 OM OM1 4437 -0.550000 15.99940
4438 OM 4438 OM OM1 4438 -0.550000 15.99940
4439 OM 4439 OM OM1 4439 -0.550000 15.99940
4440 OM 4440 OM OM1 4440 -0.550000 15.99940
4441 OM 4441 OM OM1 4441 -0.550000 15.99940
4442 OM 4442 OM OM1 4442 -0.550000 15.99940
4443 OM 4443 OM OM1 4443 -0.550000 15.99940
4444 OM 4444 OM OM1 4444 -0.550000 15.99940
4445 OM 4445 OM OM1 4445 -0.550000 15.99940
4446 OM 4446 OM OM1 4446 -0.550000 15.99940
4447 OM 4447 OM OM1 4447 -0.550000 15.99940
4448 OM 4448 OM OM1 4448 -0.550000 15.99940
4449 OM 4449 OM OM1 4449 -0.550000 15.99940
4450 OM 4450 OM OM1 4450 -0.550000 15.99940
4451 OM 4451 OM OM1 4451 -0.550000 15.99940
4452 OM 4452 OM OM1 4452 -0.550000 15.99940
4453 OM 4453 OM OM1 4453 -0.550000 15.99940
4454 OM 4454 OM OM1 4454 -0.550000 15.99940
4455 OM 4455 OM OM1 4455 -0.550000 15.99940
4456 OM 4456 OM OM1 4456 -0.550000 15.99940
4457 OM 4457 OM OM1 4457 -0.550000 15.99940
4458 OM 4458 OM OM1 4458 -0.550000 15.99940
4459 OM 4459 OM OM1 4459 -0.550000 15.99940
4460 OM 4460 OM OM1 4460 -0.550000 15.99940
4461 OM 4461 OM OM1 4461 -0.550000 15.99940
4462 OM 4462 OM OM1 4462 -0.550000 15.99940
4463 OM 4463 OM OM1 4463 -0.550000 15.99940
4464 OM 4464 OM OM1 4464 -0.550000 15.99940
4465 OM 4465 OM OM1 4465 -0.550000 15.99940
4466 OM 4466 OM OM1 4466 -0.550000 15.99940
4467 OM 4467 OM OM1 4467 -0.550000 15.99940
4468 OM 4468 OM OM1 4468 -0.550000 15.99940
4469 OM 4469 OM OM1 4469 -0.550000 15.99940
4470 OM 4470 OM OM1 4470 -0.550000 15.99940
4471 OM 4471 OM OM1 4471 -0.550000 15.99940
4472 OM 4472 OM OM1 4472 -0.550000 15.99940
4473 OM 4473 OM OM1 4473 -0.550000 15.99940
4474 OM 4474 OM OM1 4474 -0.550000 15.99940
4475 OM 4475 OM OM1 4475 -0.550000 15.99940
4476 OM 4476 OM OM1 4476 -0.550000 15.99940
4477 OM 4477 OM OM1 4477 -0.550000 15.99940
4478 OM 4478 OM OM1 4478 -0.550000 15.99940
4479 OM 4479 OM OM1 4479 -0.550000 15.99940
4480 OM 4480 OM OM1 4480 -0.550000 15.99940
4481 OM 4481 OM OM1 4481 -0.550000 15.99940
4482 OM 4482 OM OM1 4482 -0.550000 15.99940
4483 OM 4483 OM OM1 4483 -0.550000 15.99940
4484 OM 4484 OM OM1 4484 -0.550000 15.99940
4485 OM 4485 OM OM1 4485 -0.550000 15.99940
4486 OM 4486 OM OM1 4486 -0.550000 15.99940
4487 OM 4487 OM OM1 4487 -0.550000 15.99940
4488 OM 4488 OM OM1 4488 -0.550000 15.99940
4489 OM 4489 OM OM1 4489 -0.550000 15.99940
4490 OM 4490 OM OM1 4490 -0.550000 15.99940
4491 OM 4491 OM OM1 4491 -0.550000 15.99940
4492 OM 4492 OM OM1 4492 -0.550000 15.99940
4493 OM 4493 OM OM1 4493 -0.550000 15.99940
4494 OM 4494 OM OM1 4494 -0.550000 15.99940
4495 OM 4495 OM OM1 4495 -0.550000 15.99940
4496 OM 4496 OM OM1 4496 -0.550000 15.99940
4497 OM 4497 OM OM1 4497 -0.550000 15.99940
4498 OM 4498 OM OM1 4498 -0.550000 15.99940
4499 OM 4499 OM OM1 4499 -0.550000 15.99940
4500 OM 4500 OM OM1 4500 -0.550000 15.99940
4501 OM 4501 OM OM1 4501 -0.550000 15.99940
4502 OM 4502 OM OM1 4502 -0.550000 15.99940
4503 OM 4503 OM OM1 4503 -0.550000 15.99940
4504 OM 4504 OM OM1 4504 -0.550000 15.99940
4505 OM 4505 OM OM1 4505 -0.550000 15.99940
4506 OM 4506 OM OM1 4506 -0.550000 15.99940
4507 OM 4507 OM OM1 4507 -0.550000 15.99940
4508 OM 4508 OM OM1 4508 -0.550000 15.99940
4509 OM 4509 OM OM1 4509 -0.550000 15.99940
4510 OM 4510 OM OM1 4510 -0.550000 15.99940
4511 OM 4511 OM OM1 4511 -0.550000 15.99940
4512 OM 4512 OM OM1 4512 -0.550000 15.99940
4513 OM 4513 OM OM1 4513 -0.550000 15.99940
4514 OM 4514 OM OM1 4514 -0.550000 15.99940
4515 OM 4515 OM OM1 4515 -0.550000 15.99940
4516 OM 4516 OM OM1 4516 -0.550000 15.99940
4517 OM 4517 OM OM1 4517 -0.550000 15.99940
4518 OM 4518 OM OM1 4518 -0.550000 15.99940
4519 OM 4519 OM OM1 4519 -0.550000 15.99940
4520 OM 4520 OM OM1 4520 -0.550000 15.99940
4521 OM 4521 OM OM1 4521 -0.550000 15.99940
4522 OM 4522 OM OM1 4522 -0.550000 15.99940
4523 OM 4523 OM OM1 4523 -0.550000 15.99940
4524 OM 4524 OM OM1 4524 -0.550000 15.99940
4525 OM 4525 OM OM1 4525 -0.550000 15.99940
4526 OM 4526 OM OM1 4526 -0.550000 15.99940
4527 OM 4527 OM OM1 4527 -0.550000 15.99940
4528 OM 4528 OM OM1 4528 -0.550000 15.99940
4529 OM 4529 OM OM1 4529 -0.550000 15.99940
4530 OM 4530 OM OM1 4530 -0.550000 15.99940
4531 OM 4531 OM OM1 4531 -0.550000 15.99940
4532 OM 4532 OM OM1 4532 -0.550000 15.99940
4533 OM 4533 OM OM1 4533 -0.550000 15.99940
4534 OM 4534 OM OM1 4534 -0.550000 15.99940
4535 OM 4535 OM OM1 4535 -0.550000 15.99940
4536 OM 4536 OM OM1 4536 -0.550000 15.99940
4537 OM 4537 OM OM1 4537 -0.550000 15.99940
4538 OM 4538 OM OM1 4538 -0.550000 15.99940
4539 OM 4539 OM OM1 4539 -0.550000 15.99940
4540 OM 4540 OM OM1 4540 -0.550000 15.99940
4541 OM 4541 OM OM1 4541 -0.550000 15.99940
4542 OM 4542 OM OM1 4542 -0.550000 15.99940
4543 OM 4543 OM OM1 4543 -0.550000 15.99940
4544 OM 4544 OM OM1 4544 -0.550000 15.99940
4545 OM 4545 OM OM1 4545 -0.550000 15.99940
4546 OM 4546 OM OM1 4546 -0.550000 15.99940
4547 OM 4547 OM OM1 4547 -0.550000 15.99940
4548 OM 4548 OM OM1 4548 -0.550000 15.99940
4549 OM 4549 OM OM1 4549 -0.550000 15.99940
4550 OM 4550 OM OM1 4550 -0.550000 15.99940
4551 OM 4551 OM OM1 4551 -0.550000 15.99940
4552 OM 4552 OM OM1 4552 -0.550000 15.99940
4553 OM 4553 OM OM1 4553 -0.550000 15.99940
4554 OM 4554 OM OM1 4554 -0.550000 15.99940
4555 OM 4555 OM OM1 4555 -0.550000 15.99940
4556 OM 4556 OM OM1 4556 -0.550000 15.99940
4557 OM 4557 OM OM1 4557 -0.550000 15.99940
4558 OM 4558 OM OM1 4558 -0.550000 15.99940
4559 OM 4559 OM OM1 4559 -0.550000 15.99940
4560 OM 4560 OM OM1 4560 -0.550000 15.99940
4561 OM 4561 OM OM1 4561 -0.550000 15.99940
4562 OM 4562 OM OM1 4562 -0.550000 15.99940
4563 OM 4563 OM OM1 4563 -0.550000 15.99940
4564 OM 4564 OM OM1 4564 -0.550000 15.99940
4565 OM 4565 OM OM1 4565 -0.550000 15.99940
4566 OM 4566 OM OM1 4566 -0.550000 15.99940
4567 OM 4567 OM OM1 4567 -0.550000 15.99940
4568 OM 4568 OM OM1 4568 -0.550000 15.99940
4569 OM 4569 OM OM1 4569 -0.550000 15.99940
4570 OM 4570 OM OM1 4570 -0.550000 15.99940
4571 OM 4571 OM OM1 4571 -0.550000 15.99940
4572 OM 4572 OM OM1 4572 -0.550000 15.99940
4573 OM 4573 OM OM1 4573 -0.550000 15.99940
4574 OM 4574 OM OM1 4574 -0.550000 15.99940
4575 OM 4575 OM OM1 4575 -0.550000 15.99940
4576 OM 4576 OM OM1 4576 -0.550000 15.99940
4577 OM 4577 OM OM1 4577 -0.550000 15.99940
4578 OM 4578 OM OM1 4578 -0.550000 15.99940
4579 OM 4579 OM OM1 4579 -0.550000 15.99940
4580 OM 4580 OM OM1 4580 -0.550000 15.99940
4581 OM 4581 OM OM1 4581 -0.550000 15.99940
4582 OM 4582 OM OM1 4582 -0.550000 15.99940
4583 OM 4583 OM OM1 4583 -0.550000 15.99940
4584 OM 4584 OM OM1 4584 -0.550000 15.99940
4585 OM 4585 OM OM1 4585 -0.550000 15.99940
4586 OM 4586 OM OM1 4586 -0.550000 15.99940
4587 OM 4587 OM OM1 4587 -0.550000 15.99940
4588 OM 4588 OM OM1 4588 -0.550000 15.99940
4589 OM 4589 OM OM1 4589 -0.550000 15.99940
4590 OM 4590 OM OM1 4590 -0.550000 15.99940
4591 OM 4591 OM OM1 4591 -0.550000 15.99940
4592 OM 4592 OM OM1 4592 -0.550000 15.99940
4593 OM 4593 OM OM1 4593 -0.550000 15.99940
4594 OM 4594 OM OM1 4594 -0.550000 15.99940
4595 OM 4595 OM OM1 4595 -0.550000 15.99940
4596 OM 4596 OM OM1 4596 -0.550000 15.99940
4597 OM 4597 OM OM1 4597 -0.550000 15.99940
4598 OM 4598 OM OM1 4598 -0.550000 15.99940
4599 OM 4599 OM OM1 4599 -0.550000 15.99940
4600 OM 4600 OM OM1 4600 -0.550000 15.99940
4601 OM 4601 OM OM1 4601 -0.550000 15.99940
4602 OM 4602 OM OM1 4602 -0.550000 15.99940
4603 OM 4603 OM OM1 4603 -0.550000 15.99940
4604 OM 4604 OM OM1 4604 -0.550000 15.99940
4605 OM 4605 OM OM1 4605 -0.550000 15.99940
4606 OM 4606 OM OM1 4606 -0.550000 15.99940
4607 OM 4607 OM OM1 4607 -0.550000 15.99940
4608 OM 4608 OM OM1 4608 -0.550000 15.99940
4609 OM 4609 OM OM1 4609 -0.550000 15.99940
4610 OM 4610 OM OM1 4610 -0.550000 15.99940
4611 OM 4611 OM OM1 4611 -0.550000 15.99940
4612 OM 4612 OM OM1 4612 -0.550000 15.99940
4613 OM 4613 OM OM1 4613 -0.550000 15.99940
4614 OM 4614 OM OM1 4614 -0.550000 15.99940
4615 OM 4615 OM OM1 4615 -0.550000 15.99940
4616 OM 4616 OM OM1 4616 -0.550000 15.99940
4617 OM 4617 OM OM1 4617 -0.550000 15.99940
4618 OM 4618 OM OM1 4618 -0.550000 15.99940
4619 OM 4619 OM OM1 4619 -0.550000 15.99940
4620 OM 4620 OM OM1 4620 -0.550000 15.99940
4621 OM 4621 OM OM1 4621 -0.550000 15.99940
4622 OM 4622 OM OM1 4622 -0.550000 15.99940
4623 OM 4623 OM OM1 4623 -0.550000 15.99940
4624 OM 4624 OM OM1 4624 -0.550000 15.99940
4625 OM 4625 OM OM1 4625 -0.550000 15.99940
4626 OM 4626 OM OM1 4626 -0.550000 15.99940
4627 OM 4627 OM OM1 4627 -0.550000 15.99940
4628 OM 4628 OM OM1 4628 -0.550000 15.99940
4629 OM 4629 OM OM1 4629 -0.550000 15.99940
4630 OM 4630 OM OM1 4630 -0.550000 15.99940
4631 OM 4631 OM OM1 4631 -0.550000 15.99940
4632 OM 4632 OM OM1 4632 -0.550000 15.99940
4633 OM 4633 OM OM1 4633 -0.550000 15.99940
4634 OM 4634 OM OM1 4634 -0.550000 15.99940
4635 OM 4635 OM OM1 4635 -0.550000 15.99940
4636 OM 4636 OM OM1 4636 -0.550000 15.99940
4637 OM 4637 OM OM1 4637 -0.550000 15.99940
4638 OM 4638 OM OM1 4638 -0.550000 15.99940
4639 OM 4639 OM OM1 4639 -0.550000 15.99940
4640 OM 4640 OM OM1 4640 -0.550000 15.99940
4641 OM 4641 OM OM1 4641 -0.550000 15.99940
4642 OM 4642 OM OM1 4642 -0.550000 15.99940
4643 OM 4643 OM OM1 4643 -0.550000 15.99940
4644 OM 4644 OM OM1 4644 -0.550000 15.99940
4645 OM 4645 OM OM1 4645 -0.550000 15.99940
4646 OM 4646 OM OM1 4646 -0.550000 15.99940
4647 OM 4647 OM OM1 4647 -0.550000 15.99940
4648 OM 4648 OM OM1 4648 -0.550000 15.99940
4649 OM 4649 OM OM1 4649 -0.550000 15.99940
4650 OM 4650 OM OM1 4650 -0.550000 15.99940
4651 OM 4651 OM OM1 4651 -0.550000 15.99940
4652 OM 4652 OM OM1 4652 -0.550000 15.99940
4653 OM 4653 OM OM1 4653 -0.550000 15.99940
4654 OM 4654 OM OM1 4654 -0.550000 15.99940
4655 OM 4655 OM OM1 4655 -0.550000 15.99940
4656 OM 4656 OM OM1 4656 -0.550000 15.99940
4657 OM 4657 OM OM1 4657 -0.550000 15.99940
4658 OM 4658 OM OM1 4658 -0.550000 15.99940
4659 OM 4659 OM OM1 4659 -0.550000 15.99940
4660 OM 4660 OM OM1 4660 -0.550000 15.99940
4661 OM 4661 OM OM1 4661 -0.550000 15.99940
4662 OM 4662 OM OM1 4662 -0.550000 15.99940
4663 OM 4663 OM OM1 4663 -0.550000 15.99940
4664 OM 4664 OM OM1 4664 -0.550000 15.99940
4665 OM 4665 OM OM1 4665 -0.550000 15.99940
4666 OM 4666 OM OM1 4666 -0.550000 15.99940
4667 OM 4667 OM OM1 4667 -0.550000 15.99940
4668 OM 4668 OM OM1 4668 -0.550000 15.99940
4669 OM 4669 OM OM1 4669 -0.550000 15.99940
4670 OM 4670 OM OM1 4670 -0.550000 15.99940
4671 OM 4671 OM OM1 4671 -0.550000 15.99940
4672 OM 4672 OM OM1 4672 -0.550000 15.99940
4673 OM 4673 OM OM1 4673 -0.550000 15.99940
4674 OM 4674 OM OM1 4674 -0.550000 15.99940
4675 OM 4675 OM OM1 4675 -0.550000 15.99940
4676 OM 4676 OM OM1 4676 -0.550000 15.99940
4677 OM 4677 OM OM1 4677 -0.550000 15.99940
4678 OM 4678 OM OM1 4678 -0.550000 15.99940
4679 OM 4679 OM OM1 4679 -0.550000 15.99940
4680 OM 4680 OM OM1 4680 -0.550000 15.99940
4681 OM 4681 OM OM1 4681 -0.550000 15.99940
4682 OM 4682 OM OM1 4682 -0.550000 15.99940
4683 OM 4683 OM OM1 4683 -0.550000 15.99940
4684 OM 4684 OM OM1 4684 -0.550000 15.99940
4685 OM 4685 OM OM1 4685 -0.550000 15.99940
4686 OM 4686 OM OM1 4686 -0.550000 15.99940
4687 OM 4687 OM OM1 4687 -0.550000 15.99940
4688 OM 4688 OM OM1 4688 -0.550000 15.99940
4689 OM 4689 OM OM1 4689 -0.550000 15.99940
4690 OM 4690 OM OM1 4690 -0.550000 15.99940
4691 OM 4691 OM OM1 4691 -0.550000 15.99940
4692 OM 4692 OM OM1 4692 -0.550000 15.99940
4693 OM 4693 OM OM1 4693 -0.550000 15.99940
4694 OM 4694 OM OM1 4694 -0.550000 15.99940
4695 OM 4695 OM OM1 4695 -0.550000 15.99940
4696 OM 4696 OM OM1 4696 -0.550000 15.99940
4697 OM 4697 OM OM1 4697 -0.550000 15.99940
4698 OM 4698 OM OM1 4698 -0.550000 15.99940
4699 OM 4699 OM OM1 4699 -0.550000 15.99940
4700 OM 4700 OM OM1 4700 -0.550000 15.99940
4701 OM 4701 OM OM1 4701 -0.550000 15.99940
4702 OM 4702 OM OM1 4702 -0.550000 15.99940
4703 OM 4703 OM OM1 4703 -0.550000 15.99940
4704 OM 4704 OM OM1 4704 -0.550000 15.99940
4705 OM 4705 OM OM1 4705 -0.550000 15.99940
4706 OM 4706 OM OM1 4706 -0.550000 15.99940
4707 OM 4707 OM OM1 4707 -0.550000 15.99940
4708 OM 4708 OM OM1 4708 -0.550000 15.99940
4709 OM 4709 OM OM1 4709 -0.550000 15.99940
4710 OM 4710 OM OM1 4710 -0.550000 15.99940
4711 OM 4711 OM OM1 4711 -0.550000 15.99940
4712 OM 4712 OM OM1 4712 -0.550000 15.99940
4713 OM 4713 OM OM1 4713 -0.550000 15.99940
4714 OM 4714 OM OM1 4714 -0.550000 15.99940
4715 OM 4715 OM OM1 4715 -0.550000 15.99940
4716 OM 4716 OM OM1 4716 -0.550000 15.99940
4717 OM 4717 OM OM1 4717 -0.550000 15.99940
4718 OM 4718 OM OM1 4718 -0.550000 15.99940
4719 OM 4719 OM OM1 4719 -0.550000 15.99940
4720 OM 4720 OM OM1 4720 -0.550000 15.99940
4721 OM 4721 OM OM1 4721 -0.550000 15.99940
4722 OM 4722 OM OM1 4722 -0.550000 15.99940
4723 OM 4723 OM OM1 4723 -0.550000 15.99940
4724 OM 4724 OM OM1 4724 -0.550000 15.99940
4725 OM 4725 OM OM1 4725 -0.550000 15.99940
4726 OM 4726 OM OM1 4726 -0.550000 15.99940
4727 OM 4727 OM OM1 4727 -0.550000 15.99940
4728 OM 4728 OM OM1 4728 -0.550000 15.99940
4729 OM 4729 OM OM1 4729 -0.550000 15.99940
4730 OM 4730 OM OM1 4730 -0.550000 15.99940
4731 OM 4731 OM OM1 4731 -0.550000 15.99940
4732 OM 4732 OM OM1 4732 -0.550000 15.99940
4733 OM 4733 OM OM1 4733 -0.550000 15.99940
4734 OM 4734 OM OM1 4734 -0.550000 15.99940
4735 OM 4735 OM OM1 4735 -0.550000 15.99940
4736 OM 4736 OM OM1 4736 -0.550000 15.99940
4737 OM 4737 OM OM1 4737 -0.550000 15.99940
4738 OM 4738 OM OM1 4738 -0.550000 15.99940
4739 OM 4739 OM OM1 4739 -0.550000 15.99940
4740 OM 4740 OM OM1 4740 -0.550000 15.99940
4741 OM 4741 OM OM1 4741 -0.550000 15.99940
4742 OM 4742 OM OM1 4742 -0.550000 15.99940
4743 OM 4743 OM OM1 4743 -0.550000 15.99940
4744 OM 4744 OM OM1 4744 -0.550000 15.99940
4745 OM 4745 OM OM1 4745 -0.550000 15.99940
4746 OM 4746 OM OM1 4746 -0.550000 15.99940
4747 OM 4747 OM OM1 4747 -0.550000 15.99940
4748 OM 4748 OM OM1 4748 -0.550000 15.99940
4749 OM 4749 OM OM1 4749 -0.550000 15.99940
4750 OM 4750 OM OM1 4750 -0.550000 15.99940
4751 OM 4751 OM OM1 4751 -0.550000 15.99940
4752 OM 4752 OM OM1 4752 -0.550000 15.99940
4753 OM 4753 OM OM1 4753 -0.550000 15.99940
4754 OM 4754 OM OM1 4754 -0.550000 15.99940
4755 OM 4755 OM OM1 4755 -0.550000 15.99940
4756 OM 4756 OM OM1 4756 -0.550000 15.99940
4757 OM 4757 OM OM1 4757 -0.550000 15.99940
4758 OM 4758 OM OM1 4758 -0.550000 15.99940
4759 OM 4759 OM OM1 4759 -0.550000 15.99940
4760 OM 4760 OM OM1 4760 -0.550000 15.99940
4761 OM 4761 OM OM1 4761 -0.550000 15.99940
4762 OM 4762 OM OM1 4762 -0.550000 15.99940
4763 OM 4763 OM OM1 4763 -0.550000 15.99940
4764 OM 4764 OM OM1 4764 -0.550000 15.99940
4765 OM 4765 OM OM1 4765 -0.550000 15.99940
4766 OM 4766 OM OM1 4766 -0.550000 15.99940
4767 OM 4767 OM OM1 4767 -0.550000 15.99940
4768 OM 4768 OM OM1 4768 -0.550000 15.99940
4769 OM 4769 OM OM1 4769 -0.550000 15.99940
4770 OM 4770 OM OM1 4770 -0.550000 15.99940
4771 OM 4771 OM OM1 4771 -0.550000 15.99940
4772 OM 4772 OM OM1 4772 -0.550000 15.99940
4773 OM 4773 OM OM1 4773 -0.550000 15.99940
4774 OM 4774 OM OM1 4774 -0.550000 15.99940
4775 OM 4775 OM OM1 4775 -0.550000 15.99940
4776 OM 4776 OM OM1 4776 -0.550000 15.99940
4777 OM 4777 OM OM1 4777 -0.550000 15.99940
4778 OM 4778 OM OM1 4778 -0.550000 15.99940
4779 OM 4779 OM OM1 4779 -0.550000 15.99940
4780 OM 4780 OM OM1 4780 -0.550000 15.99940
4781 OM 4781 OM OM1 4781 -0.550000 15.99940
4782 OM 4782 OM OM1 4782 -0.550000 15.99940
4783 OM 4783 OM OM1 4783 -0.550000 15.99940
4784 OM 4784 OM OM1 4784 -0.550000 15.99940
4785 OM 4785 OM OM1 4785 -0.550000 15.99940
4786 OM 4786 OM OM1 4786 -0.550000 15.99940
4787 OM 4787 OM OM1 4787 -0.550000 15.99940
4788 OM 4788 OM OM1 4788 -0.550000 15.99940
4789 OM 4789 OM OM1 4789 -0.550000 15.99940
4790 OM 4790 OM OM1 4790 -0.550000 15.99940
4791 OM 4791 OM OM1 4791 -0.550000 15.99940
4792 OM 4792 OM OM1 4792 -0.550000 15.99940
4793 OM 4793 OM OM1 4793 -0.550000 15.99940
4794 OM 4794 OM OM1 4794 -0.550000 15.99940
4795 OM 4795 OM OM1 4795 -0.550000 15.99940
4796 OM 4796 OM OM1 4796 -0.550000 15.99940
4797 OM 4797 OM OM1 4797 -0.550000 15.99940
4798 OM 4798 OM OM1 4798 -0.550000 15.99940
4799 OM 4799 OM OM1 4799 -0.550000 15.99940
4800 OM 4800 OM OM1 4800 -0.550000 15.99940
4801 OM 4801 OM OM1 4801 -0.550000 15.99940
4802 OM 4802 OM OM1 4802 -0.550000 15.99940
4803 OM 4803 OM OM1 4803 -0.550000 15.99940
4804 OM 4804 OM OM1 4804 -0.550000 15.99940
4805 OM 4805 OM OM1 4805 -0.550000 15.99940
4806 OM 4806 OM OM1 4806 -0.550000 15.99940
4807 OM 4807 OM OM1 4807 -0.550000 15.99940
4808 OM 4808 OM OM1 4808 -0.550000 15.99940
4809 OM 4809 OM OM1 4809 -0.550000 15.99940
4810 OM 4810 OM OM1 4810 -0.550000 15.99940
4811 OM 4811 OM OM1 4811 -0.550000 15.99940
4812 OM 4812 OM OM1 4812 -0.550000 15.99940
4813 OM 4813 OM OM1 4813 -0.550000 15.99940
4814 OM 4814 OM OM1 4814 -0.550000 15.99940
4815 OM 4815 OM OM1 4815 -0.550000 15.99940
4816 OM 4816 OM OM1 4816 -0.550000 15.99940
4817 OM 4817 OM OM1 4817 -0.550000 15.99940
4818 OM 4818 OM OM1 4818 -0.550000 15.99940
4819 OM 4819 OM OM1 4819 -0.550000 15.99940
4820 OM 4820 OM OM1 4820 -0.550000 15.99940
4821 OM 4821 OM OM1 4821 -0.550000 15.99940
4822 OM 4822 OM OM1 4822 -0.550000 15.99940
4823 OM 4823 OM OM1 4823 -0.550000 15.99940
4824 OM 4824 OM OM1 4824 -0.550000 15.99940
4825 OM 4825 OM OM1 4825 -0.550000 15.99940
4826 OM 4826 OM OM1 4826 -0.550000 15.99940
4827 OM 4827 OM OM1 4827 -0.550000 15.99940
4828 OM 4828 OM OM1 4828 -0.550000 15.99940
4829 OM 4829 OM OM1 4829 -0.550000 15.99940
4830 OM 4830 OM OM1 4830 -0.550000 15.99940
4831 OM 4831 OM OM1 4831 -0.550000 15.99940
4832 OM 4832 OM OM1 4832 -0.550000 15.99940
4833 OM 4833 OM OM1 4833 -0.550000 15.99940
4834 OM 4834 OM OM1 4834 -0.550000 15.99940
4835 OM 4835 OM OM1 4835 -0.550000 15.99940
4836 OM 4836 OM OM1 4836 -0.550000 15.99940
4837 OM 4837 OM OM1 4837 -0.550000 15.99940
4838 OM 4838 OM OM1 4838 -0.550000 15.99940
4839 OM 4839 OM OM1 4839 -0.550000 15.99940
4840 OM 4840 OM OM1 4840 -0.550000 15.99940
4841 OM 4841 OM OM1 4841 -0.550000 15.99940
4842 OM 4842 OM OM1 4842 -0.550000 15.99940
4843 OM 4843 OM OM1 4843 -0.550000 15.99940
4844 OM 4844 OM OM1 4844 -0.550000 15.99940
4845 OM 4845 OM OM1 4845 -0.550000 15.99940
4846 OM 4846 OM OM1 4846 -0.550000 15.99940
4847 OM 4847 OM OM1 4847 -0.550000 15.99940
4848 OM 4848 OM OM1 4848 -0.550000 15.99940
4849 OM 4849 OM OM1 4849 -0.550000 15.99940
4850 OM 4850 OM OM1 4850 -0.550000 15.99940
4851 OM 4851 OM OM1 4851 -0.550000 15.99940
4852 OM 4852 OM OM1 4852 -0.550000 15.99940
4853 OM 4853 OM OM1 4853 -0.550000 15.99940
4854 OM 4854 OM OM1 4854 -0.550000 15.99940
4855 OM 4855 OM OM1 4855 -0.550000 15.99940
4856 OM 4856 OM OM1 4856 -0.550000 15.99940
4857 OM 4857 OM OM1 4857 -0.550000 15.99940
4858 OM 4858 OM OM1 4858 -0.550000 15.99940
4859 OM 4859 OM OM1 4859 -0.550000 15.99940
4860 OM 4860 OM OM1 4860 -0.550000 15.99940
4861 OM 4861 OM OM1 4861 -0.550000 15.99940
4862 OM 4862 OM OM1 4862 -0.550000 15.99940
4863 OM 4863 OM OM1 4863 -0.550000 15.99940
4864 OM 4864 OM OM1 4864 -0.550000 15.99940
4865 OM 4865 OM OM1 4865 -0.550000 15.99940
4866 OM 4866 OM OM1 4866 -0.550000 15.99940
4867 OM 4867 OM OM1 4867 -0.550000 15.99940
4868 OM 4868 OM OM1 4868 -0.550000 15.99940
4869 OM 4869 OM OM1 4869 -0.550000 15.99940
4870 OM 4870 OM OM1 4870 -0.550000 15.99940
4871 OM 4871 OM OM1 4871 -0.550000 15.99940
4872 OM 4872 OM OM1 4872 -0.550000 15.99940
4873 OM 4873 OM OM1 4873 -0.550000 15.99940
4874 OM 4874 OM OM1 4874 -0.550000 15.99940
4875 OM 4875 OM OM1 4875 -0.550000 15.99940
4876 OM 4876 OM OM1 4876 -0.550000 15.99940
4877 OM 4877 OM OM1 4877 -0.550000 15.99940
4878 OM 4878 OM OM1 4878 -0.550000 15.99940
4879 OM 4879 OM OM1 4879 -0.550000 15.99940
4880 OM 4880 OM OM1 4880 -0.550000 15.99940
4881 OM 4881 OM OM1 4881 -0.550000 15.99940
4882 OM 4882 OM OM1 4882 -0.550000 15.99940
4883 OM 4883 OM OM1 4883 -0.550000 15.99940
4884 OM 4884 OM OM1 4884 -0.550000 15.99940
4885 OM 4885 OM OM1 4885 -0.550000 15.99940
4886 OM 4886 OM OM1 4886 -0.550000 15.99940
4887 OM 4887 OM OM1 4887 -0.550000 15.99940
4888 OM 4888 OM OM1 4888 -0.550000 15.99940
4889 OM 4889 OM OM1 4889 -0.550000 15.99940
4890 OM 4890 OM OM1 4890 -0.550000 15.99940
4891 OM 4891 OM OM1 4891 -0.550000 15.99940
4892 OM 4892 OM OM1 4892 -0.550000 15.99940
4893 OM 4893 OM OM1 4893 -0.550000 15.99940
4894 OM 4894 OM OM1 4894 -0.550000 15.99940
4895 OM 4895 OM OM1 4895 -0.550000 15.99940
4896 OM 4896 OM OM1 4896 -0.550000 15.99940
4897 OM 4897 OM OM1 4897 -0.550000 15.99940
4898 OM 4898 OM OM1 4898 -0.550000 15.99940
4899 OM 4899 OM OM1 4899 -0.550000 15.99940
4900 OM 4900 OM OM1 4900 -0.550000 15.99940
4901 OM 4901 OM OM1 4901 -0.550000 15.99940
4902 OM 4902 OM OM1 4902 -0.550000 15.99940
4903 OM 4903 OM OM1 4903 -0.550000 15.99940
4904 OM 4904 OM OM1 4904 -0.550000 15.99940
4905 OM 4905 OM OM1 4905 -0.550000 15.99940
4906 OM 4906 OM OM1 4906 -0.550000 15.99940
4907 OM 4907 OM OM1 4907 -0.550000 15.99940
4908 OM 4908 OM OM1 4908 -0.550000 15.99940
4909 OM 4909 OM OM1 4909 -0.550000 15.99940
4910 OM 4910 OM OM1 4910 -0.550000 15.99940
4911 OM 4911 OM OM1 4911 -0.550000 15.99940
4912 OM 4912 OM OM1 4912 -0.550000 15.99940
4913 OM 4913 OM OM1 4913 -0.550000 15.99940
4914 OM 4914 OM OM1 4914 -0.550000 15.99940
4915 OM 4915 OM OM1 4915 -0.550000 15.99940
4916 OM 4916 OM OM1 4916 -0.550000 15.99940
4917 OM 4917 OM OM1 4917 -0.550000 15.99940
4918 OM 4918 OM OM1 4918 -0.550000 15.99940
4919 OM 4919 OM OM1 4919 -0.550000 15.99940
4920 OM 4920 OM OM1 4920 -0.550000 15.99940
4921 OM 4921 OM OM1 4921 -0.550000 15.99940
4922 OM 4922 OM OM1 4922 -0.550000 15.99940
4923 OM 4923 OM OM1 4923 -0.550000 15.99940
4924 OM 4924 OM OM1 4924 -0.550000 15.99940
4925 OM 4925 OM OM1 4925 -0.550000 15.99940
4926 OM 4926 OM OM1 4926 -0.550000 15.99940
4927 OM 4927 OM OM1 4927 -0.550000 15.99940
4928 OM 4928 OM OM1 4928 -0.550000 15.99940
4929 OM 4929 OM OM1 4929 -0.550000 15.99940
4930 OM 4930 OM OM1 4930 -0.550000 15.99940
4931 OM 4931 OM OM1 4931 -0.550000 15.99940
4932 OM 4932 OM OM1 4932 -0.550000 15.99940
4933 OM 4933 OM OM1 4933 -0.550000 15.99940
4934 OM 4934 OM OM1 4934 -0.550000 15.99940
4935 OM 4935 OM OM1 4935 -0.550000 15.99940
4936 OM 4936 OM OM1 4936 -0.550000 15.99940
4937 OM 4937 OM OM1 4937 -0.550000 15.99940
4938 OM 4938 OM OM1 4938 -0.550000 15.99940
4939 OM 4939 OM OM1 4939 -0.550000 15.99940
4940 OM 4940 OM OM1 4940 -0.550000 15.99940
4941 OM 4941 OM OM1 4941 -0.550000 15.99940
4942 OM 4942 OM OM1 4942 -0.550000 15.99940
4943 OM 4943 OM OM1 4943 -0.550000 15.99940
4944 OM 4944 OM OM1 4944 -0.550000 15.99940
4945 OM 4945 OM OM1 4945 -0.550000 15.99940
4946 OM 4946 OM OM1 4946 -0.550000 15.99940
4947 OM 4947 OM OM1 4947 -0.550000 15.99940
4948 OM 4948 OM OM1 4948 -0.550000 15.99940
4949 OM 4949 OM OM1 4949 -0.550000 15.99940
4950 OM 4950 OM OM1 4950 -0.550000 15.99940
4951 OM 4951 OM OM1 4951 -0.550000 15.99940
4952 OM 4952 OM OM1 4952 -0.550000 15.99940
4953 OM 4953 OM OM1 4953 -0.550000 15.99940
4954 OM 4954 OM OM1 4954 -0.550000 15.99940
4955 OM 4955 OM OM1 4955 -0.550000 15.99940
4956 OM 4956 OM OM1 4956 -0.550000 15.99940
4957 OM 4957 OM OM1 4957 -0.550000 15.99940
4958 OM 4958 OM OM1 4958 -0.550000 15.99940
4959 OM 4959 OM OM1 4959 -0.550000 15.99940
4960 OM 4960 OM OM1 4960 -0.550000 15.99940
4961 OM 4961 OM OM1 4961 -0.550000 15.99940
4962 OM 4962 OM OM1 4962 -0.550000 15.99940
4963 OM 4963 OM OM1 4963 -0.550000 15.99940
4964 OM 4964 OM OM1 4964 -0.550000 15.99940
4965 OM 4965 OM OM1 4965 -0.550000 15.99940
4966 OM 4966 OM OM1 4966 -0.550000 15.99940
4967 OM 4967 OM OM1 4967 -0.550000 15.99940
4968 OM 4968 OM OM1 4968 -0.550000 15.99940
4969 OM 4969 OM OM1 4969 -0.550000 15.99940
4970 OM 4970 OM OM1 4970 -0.550000 15.99940
4971 OM 4971 OM OM1 4971 -0.550000 15.99940
4972 OM 4972 OM OM1 4972 -0.550000 15.99940
4973 OM 4973 OM OM1 4973 -0.550000 15.99940
4974 OM 4974 OM OM1 4974 -0.550000 15.99940
4975 OM 4975 OM OM1 4975 -0.550000 15.99940
4976 OM 4976 OM OM1 4976 -0.550000 15.99940
4977 OM 4977 OM OM1 4977 -0.550000 15.99940
4978 OM 4978 OM OM1 4978 -0.550000 15.99940
4979 OM 4979 OM OM1 4979 -0.550000 15.99940
4980 OM 4980 OM OM1 4980 -0.550000 15.99940
4981 OM 4981 OM OM1 4981 -0.550000 15.99940
4982 OM 4982 OM OM1 4982 -0.550000 15.99940
4983 OM 4983 OM OM1 4983 -0.550000 15.99940
4984 OM 4984 OM OM1 4984 -0.550000 15.99940
4985 OM 4985 OM OM1 4985 -0.550000 15.99940
4986 OM 4986 OM OM1 4986 -0.550000 15.99940
4987 OM 4987 OM OM1 4987 -0.550000 15.99940
4988 OM 4988 OM OM1 4988 -0.550000 15.99940
4989 OM 4989 OM OM1 4989 -0.550000 15.99940
4990 OM 4990 OM OM1 4990 -0.550000 15.99940
4991 OM 4991 OM OM1 4991 -0.550000 15.99940
4992 OM 4992 OM OM1 4992 -0.550000 15.99940
4993 OM 4993 OM OM1 4993 -0.550000 15.99940
4994 OM 4994 OM OM1 4994 -0.550000 15.99940
4995 OM 4995 OM OM1 4995 -0.550000 15.99940
4996 OM 4996 OM OM1 4996 -0.550000 15.99940
4997 OM 4997 OM OM1 4997 -0.550000 15.99940
4998 OM 4998 OM OM1 4998 -0.550000 15.99940
4999 OM 4999 OM OM1 4999 -0.550000 15.99940
5000 OM 5000 OM OM1 5000 -0.550000 15.99940
5001 OM 5001 OM OM1 5001 -0.550000 15.99940
5002 OM 5002 OM OM1 5002 -0.550000 15.99940
5003 OM 5003 OM OM1 5003 -0.550000 15.99940
5004 OM 5004 OM OM1 5004 -0.550000 15.99940
5005 OM 5005 OM OM1 5005 -0.550000 15.99940
5006 OM 5006 OM OM1 5006 -0.550000 15.99940
5007 OM 5007 OM OM1 5007 -0.550000 15.99940
5008 OM 5008 OM OM1 5008 -0.550000 15.99940
5009 OM 5009 OM OM1 5009 -0.550000 15.99940
5010 OM 5010 OM OM1 5010 -0.550000 15.99940
5011 OM 5011 OM OM1 5011 -0.550000 15.99940
5012 OM 5012 OM OM1 5012 -0.550000 15.99940
5013 OM 5013 OM OM1 5013 -0.550000 15.99940
5014 OM 5014 OM OM1 5014 -0.550000 15.99940
5015 OM 5015 OM OM1 5015 -0.550000 15.99940
5016 OM 5016 OM OM1 5016 -0.550000 15.99940
5017 OM 5017 OM OM1 5017 -0.550000 15.99940
5018 OM 5018 OM OM1 5018 -0.550000 15.99940
5019 OM 5019 OM OM1 5019 -0.550000 15.99940
5020 OM 5020 OM OM1 5020 -0.550000 15.99940
5021 OM 5021 OM OM1 5021 -0.550000 15.99940
5022 OM 5022 OM OM1 5022 -0.550000 15.99940
5023 OM 5023 OM OM1 5023 -0.550000 15.99940
5024 OM 5024 OM OM1 5024 -0.550000 15.99940
5025 OM 5025 OM OM1 5025 -0.550000 15.99940
5026 OM 5026 OM OM1 5026 -0.550000 15.99940
5027 OM 5027 OM OM1 5027 -0.550000 15.99940
5028 OM 5028 OM OM1 5028 -0.550000 15.99940
5029 OM 5029 OM OM1 5029 -0.550000 15.99940
5030 OM 5030 OM OM1 5030 -0.550000 15.99940
5031 OM 5031 OM OM1 5031 -0.550000 15.99940
5032 OM 5032 OM OM1 5032 -0.550000 15.99940
5033 OM 5033 OM OM1 5033 -0.550000 15.99940
5034 OM 5034 OM OM1 5034 -0.550000 15.99940
5035 OM 5035 OM OM1 5035 -0.550000 15.99940
5036 OM 5036 OM OM1 5036 -0.550000 15.99940
5037 OM 5037 OM OM1 5037 -0.550000 15.99940
5038 OM 5038 OM OM1 5038 -0.550000 15.99940
5039 OM 5039 OM OM1 5039 -0.550000 15.99940
5040 OM 5040 OM OM1 5040 -0.550000 15.99940
5041 OM 5041 OM OM1 5041 -0.550000 15.99940
5042 OM 5042 OM OM1 5042 -0.550000 15.99940
5043 OM 5043 OM OM1 5043 -0.550000 15.99940
5044 OM 5044 OM OM1 5044 -0.550000 15.99940
5045 OM 5045 OM OM1 5045 -0.550000 15.99940
5046 OM 5046 OM OM1 5046 -0.550000 15.99940
5047 OM 5047 OM OM1 5047 -0.550000 15.99940
5048 OM 5048 OM OM1 5048 -0.550000 15.99940
5049 OM 5049 OM OM1 5049 -0.550000 15.99940
5050 OM 5050 OM OM1 5050 -0.550000 15.99940
5051 OM 5051 OM OM1 5051 -0.550000 15.99940
5052 OM 5052 OM OM1 5052 -0.550000 15.99940
5053 OM 5053 OM OM1 5053 -0.550000 15.99940
5054 OM 5054 OM OM1 5054 -0.550000 15.99940
5055 OM 5055 OM OM1 5055 -0.550000 15.99940
5056 OM 5056 OM OM1 5056 -0.550000 15.99940
5057 OM 5057 OM OM1 5057 -0.550000 15.99940
5058 OM 5058 OM OM1 5058 -0.550000 15.99940
5059 OM 5059 OM OM1 5059 -0.550000 15.99940
5060 OM 5060 OM OM1 5060 -0.550000 15.99940
5061 OM 5061 OM OM1 5061 -0.550000 15.99940
5062 OM 5062 OM OM1 5062 -0.550000 15.99940
5063 OM 5063 OM OM1 5063 -0.550000 15.99940
5064 OM 5064 OM OM1 5064 -0.550000 15.99940
5065 OM 5065 OM OM1 5065 -0.550000 15.99940
5066 OM 5066 OM OM1 5066 -0.550000 15.99940
5067 OM 5067 OM OM1 5067 -0.550000 15.99940
5068 OM 5068 OM OM1 5068 -0.550000 15.99940
5069 OM 5069 OM OM1 5069 -0.550000 15.99940
5070 OM 5070 OM OM1 5070 -0.550000 15.99940
5071 OM 5071 OM OM1 5071 -0.550000 15.99940
5072 OM 5072 OM OM1 5072 -0.550000 15.99940
5073 OM 5073 OM OM1 5073 -0.550000 15.99940
5074 OM 5074 OM OM1 5074 -0.550000 15.99940
5075 OM 5075 OM OM1 5075 -0.550000 15.99940
5076 OM 5076 OM OM1 5076 -0.550000 15.99940
5077 OM 5077 OM OM1 5077 -0.550000 15.99940
5078 OM 5078 OM OM1 5078 -0.550000 15.99940
5079 OM 5079 OM OM1 5079 -0.550000 15.99940
5080 OM 5080 OM OM1 5080 -0.550000 15.99940
5081 OM 5081 OM OM1 5081 -0.550000 15.99940
5082 OM 5082 OM OM1 5082 -0.550000 15.99940
5083 OM 5083 OM OM1 5083 -0.550000 15.99940
5084 OM 5084 OM OM1 5084 -0.550000 15.99940
5085 OM 5085 OM OM1 5085 -0.550000 15.99940
5086 OM 5086 OM OM1 5086 -0.550000 15.99940
5087 OM 5087 OM OM1 5087 -0.550000 15.99940
5088 OM 5088 OM OM1 5088 -0.550000 15.99940
5089 OM 5089 OM OM1 5089 -0.550000 15.99940
5090 OM 5090 OM OM1 5090 -0.550000 15.99940
5091 OM 5091 OM OM1 5091 -0.550000 15.99940
5092 OM 5092 OM OM1 5092 -0.550000 15.99940
5093 OM 5093 OM OM1 5093 -0.550000 15.99940
5094 OM 5094 OM OM1 5094 -0.550000 15.99940
5095 OM 5095 OM OM1 5095 -0.550000 15.99940
5096 OM 5096 OM OM1 5096 -0.550000 15.99940
5097 OM 5097 OM OM1 5097 -0.550000 15.99940
5098 OM 5098 OM OM1 5098 -0.550000 15.99940
5099 OM 5099 OM OM1 5099 -0.550000 15.99940
5100 OM 5100 OM OM1 5100 -0.550000 15.99940
5101 OM 5101 OM OM1 5101 -0.550000 15.99940
5102 OM 5102 OM OM1 5102 -0.550000 15.99940
5103 OM 5103 OM OM1 5103 -0.550000 15.99940
5104 OM 5104 OM OM1 5104 -0.550000 15.99940
5105 OM 5105 OM OM1 5105 -0.550000 15.99940
5106 OM 5106 OM OM1 5106 -0.550000 15.99940
5107 OM 5107 OM OM1 5107 -0.550000 15.99940
5108 OM 5108 OM OM1 5108 -0.550000 15.99940
5109 OM 5109 OM OM1 5109 -0.550000 15.99940
5110 OM 5110 OM OM1 5110 -0.550000 15.99940
5111 OM 5111 OM OM1 5111 -0.550000 15.99940
5112 OM 5112 OM OM1 5112 -0.550000 15.99940
5113 OM 5113 OM OM1 5113 -0.550000 15.99940
5114 OM 5114 OM OM1 5114 -0.550000 15.99940
5115 OM 5115 OM OM1 5115 -0.550000 15.99940
5116 OM 5116 OM OM1 5116 -0.550000 15.99940
5117 OM 5117 OM OM1 5117 -0.550000 15.99940
5118 OM 5118 OM OM1 5118 -0.550000 15.99940
5119 OM 5119 OM OM1 5119 -0.550000 15.99940
5120 OM 5120 OM OM1 5120 -0.550000 15.99940
5121 OM 5121 OM OM1 5121 -0.550000 15.99940
5122 OM 5122 OM OM1 5122 -0.550000 15.99940
5123 OM 5123 OM OM1 5123 -0.550000 15.99940
5124 OM 5124 OM OM1 5124 -0.550000 15.99940
5125 OM 5125 OM OM1 5125 -0.550000 15.99940
5126 OM 5126 OM OM1 5126 -0.550000 15.99940
5127 OM 5127 OM OM1 5127 -0.550000 15.99940
5128 OM 5128 OM OM1 5128 -0.550000 15.99940
5129 OM 5129 OM OM1 5129 -0.550000 15.99940
5130 OM 5130 OM OM1 5130 -0.550000 15.99940
5131 OM 5131 OM OM1 5131 -0.550000 15.99940
5132 OM 5132 OM OM1 5132 -0.550000 15.99940
5133 OM 5133 OM OM1 5133 -0.550000 15.99940
5134 OM 5134 OM OM1 5134 -0.550000 15.99940
5135 OM 5135 OM OM1 5135 -0.550000 15.99940
5136 OM 5136 OM OM1 5136 -0.550000 15.99940
5137 OM 5137 OM OM1 5137 -0.550000 15.99940
5138 OM 5138 OM OM1 5138 -0.550000 15.99940
5139 OM 5139 OM OM1 5139 -0.550000 15.99940
5140 OM 5140 OM OM1 5140 -0.550000 15.99940
5141 OM 5141 OM OM1 5141 -0.550000 15.99940
5142 OM 5142 OM OM1 5142 -0.550000 15.99940
5143 OM 5143 OM OM1 5143 -0.550000 15.99940
5144 OM 5144 OM OM1 5144 -0.550000 15.99940
5145 OM 5145 OM OM1 5145 -0.550000 15.99940
5146 OM 5146 OM OM1 5146 -0.550000 15.99940
5147 OM 5147 OM OM1 5147 -0.550000 15.99940
5148 OM 5148 OM OM1 5148 -0.550000 15.99940
5149 OM 5149 OM OM1 5149 -0.550000 15.99940
5150 OM 5150 OM OM1 5150 -0.550000 15.99940
5151 OM 5151 OM OM1 5151 -0.550000 15.99940
5152 OM 5152 OM OM1 5152 -0.550000 15.99940
5153 OM 5153 OM OM1 5153 -0.550000 15.99940
5154 OM 5154 OM OM1 5154 -0.550000 15.99940
5155 OM 5155 OM OM1 5155 -0.550000 15.99940
5156 OM 5156 OM OM1 5156 -0.550000 15.99940
5157 OM 5157 OM OM1 5157 -0.550000 15.99940
5158 OM 5158 OM OM1 5158 -0.550000 15.99940
5159 OM 5159 OM OM1 5159 -0.550000 15.99940
5160 OM 5160 OM OM1 5160 -0.550000 15.99940
5161 OM 5161 OM OM1 5161 -0.550000 15.99940
5162 OM 5162 OM OM1 5162 -0.550000 15.99940
5163 OM 5163 OM OM1 5163 -0.550000 15.99940
5164 OM 5164 OM OM1 5164 -0.550000 15.99940
5165 OM 5165 OM OM1 5165 -0.550000 15.99940
5166 OM 5166 OM OM1 5166 -0.550000 15.99940
5167 OM 5167 OM OM1 5167 -0.550000 15.99940
5168 OM 5168 OM OM1 5168 -0.550000 15.99940
5169 OM 5169 OM OM1 5169 -0.550000 15.99940
5170 OM 5170 OM OM1 5170 -0.550000 15.99940
5171 OM 5171 OM OM1 5171 -0.550000 15.99940
5172 OM 5172 OM OM1 5172 -0.550000 15.99940
5173 OM 5173 OM OM1 5173 -0.550000 15.99940
5174 OM 5174 OM OM1 5174 -0.550000 15.99940
5175 OM 5175 OM OM1 5175 -0.550000 15.99940
5176 OM 5176 OM OM1 5176 -0.550000 15.99940
5177 OM 5177 OM OM1 5177 -0.550000 15.99940
5178 OM 5178 OM OM1 5178 -0.550000 15.99940
5179 OM 5179 OM OM1 5179 -0.550000 15.99940
5180 OM 5180 OM OM1 5180 -0.550000 15.99940
5181 OM 5181 OM OM1 5181 -0.550000 15.99940
5182 OM 5182 OM OM1 5182 -0.550000 15.99940
5183 OM 5183 OM OM1 5183 -0.550000 15.99940
5184 OM 5184 OM OM1 5184 -0.550000 15.99940
5185 OM 5185 OM OM1 5185 -0.550000 15.99940
5186 OM 5186 OM OM1 5186 -0.550000 15.99940
5187 OM 5187 OM OM1 5187 -0.550000 15.99940
5188 OM 5188 OM OM1 5188 -0.550000 15.99940
5189 OM 5189 OM OM1 5189 -0.550000 15.99940
5190 OM 5190 OM OM1 5190 -0.550000 15.99940
5191 OM 5191 OM OM1 5191 -0.550000 15.99940
5192 OM 5192 OM OM1 5192 -0.550000 15.99940
5193 OM 5193 OM OM1 5193 -0.550000 15.99940
5194 OM 5194 OM OM1 5194 -0.550000 15.99940
5195 OM 5195 OM OM1 5195 -0.550000 15.99940
5196 OM 5196 OM OM1 5196 -0.550000 15.99940
5197 OM 5197 OM OM1 5197 -0.550000 15.99940
5198 OM 5198 OM OM1 5198 -0.550000 15.99940
5199 OM 5199 OM OM1 5199 -0.550000 15.99940
5200 OM 5200 OM OM1 5200 -0.550000 15.99940
5201 OM 5201 OM OM1 5201 -0.550000 15.99940
5202 OM 5202 OM OM1 5202 -0.550000 15.99940
5203 OM 5203 OM OM1 5203 -0.550000 15.99940
5204 OM 5204 OM OM1 5204 -0.550000 15.99940
5205 OM 5205 OM OM1 5205 -0.550000 15.99940
5206 OM 5206 OM OM1 5206 -0.550000 15.99940
5207 OM 5207 OM OM1 5207 -0.550000 15.99940
5208 OM 5208 OM OM1 5208 -0.550000 15.99940
5209 OM 5209 OM OM1 5209 -0.550000 15.99940
5210 OM 5210 OM OM1 5210 -0.550000 15.99940
5211 OM 5211 OM OM1 5211 -0.550000 15.99940
5212 OM 5212 OM OM1 5212 -0.550000 15.99940
5213 OM 5213 OM OM1 5213 -0.550000 15.99940
5214 OM 5214 OM OM1 5214 -0.550000 15.99940
5215 OM 5215 OM OM1 5215 -0.550000 15.99940
5216 OM 5216 OM OM1 5216 -0.550000 15.99940
5217 OM 5217 OM OM1 5217 -0.550000 15.99940
5218 OM 5218 OM OM1 5218 -0.550000 15.99940
5219 OM 5219 OM OM1 5219 -0.550000 15.99940
5220 OM 5220 OM OM1 5220 -0.550000 15.99940
5221 OM 5221 OM OM1 5221 -0.550000 15.99940
5222 OM 5222 OM OM1 5222 -0.550000 15.99940
5223 OM 5223 OM OM1 5223 -0.550000 15.99940
5224 OM 5224 OM OM1 5224 -0.550000 15.99940
5225 OM 5225 OM OM1 5225 -0.550000 15.99940
5226 OM 5226 OM OM1 5226 -0.550000 15.99940
5227 OM 5227 OM OM1 5227 -0.550000 15.99940
5228 OM 5228 OM OM1 5228 -0.550000 15.99940
5229 OM 5229 OM OM1 5229 -0.550000 15.99940
5230 OM 5230 OM OM1 5230 -0.550000 15.99940
5231 OM 5231 OM OM1 5231 -0.550000 15.99940
5232 OM 5232 OM OM1 5232 -0.550000 15.99940
5233 OM 5233 OM OM1 5233 -0.550000 15.99940
5234 OM 5234 OM OM1 5234 -0.550000 15.99940
5235 OM 5235 OM OM1 5235 -0.550000 15.99940
5236 OM 5236 OM OM1 5236 -0.550000 15.99940
5237 OM 5237 OM OM1 5237 -0.550000 15.99940
5238 OM 5238 OM OM1 5238 -0.550000 15.99940
5239 OM 5239 OM OM1 5239 -0.550000 15.99940
5240 OM 5240 OM OM1 5240 -0.550000 15.99940
5241 OM 5241 OM OM1 5241 -0.550000 15.99940
5242 OM 5242 OM OM1 5242 -0.550000 15.99940
5243 OM 5243 OM OM1 5243 -0.550000 15.99940
5244 OM 5244 OM OM1 5244 -0.550000 15.99940
5245 OM 5245 OM OM1 5245 -0.550000 15.99940
5246 OM 5246 OM OM1 5246 -0.550000 15.99940
5247 OM 5247 OM OM1 5247 -0.550000 15.99940
5248 OM 5248 OM OM1 5248 -0.550000 15.99940
5249 OM 5249 OM OM1 5249 -0.550000 15.99940
5250 OM 5250 OM OM1 5250 -0.550000 15.99940
5251 OM 5251 OM OM1 5251 -0.550000 15.99940
5252 OM 5252 OM OM1 5252 -0.550000 15.99940
5253 OM 5253 OM OM1 5253 -0.550000 15.99940
5254 OM 5254 OM OM1 5254 -0.550000 15.99940
5255 OM 5255 OM OM1 5255 -0.550000 15.99940
5256 OM 5256 OM OM1 5256 -0.550000 15.99940
5257 OM 5257 OM OM1 5257 -0.550000 15.99940
5258 OM 5258 OM OM1 5258 -0.550000 15.99940
5259 OM 5259 OM OM1 5259 -0.550000 15.99940
5260 OM 5260 OM OM1 5260 -0.550000 15.99940
5261 OM 5261 OM OM1 5261 -0.550000 15.99940
5262 OM 5262 OM OM1 5262 -0.550000 15.99940
5263 OM 5263 OM OM1 5263 -0.550000 15.99940
5264 OM 5264 OM OM1 5264 -0.550000 15.99940
5265 OM 5265 OM OM1 5265 -0.550000 15.99940
5266 OM 5266 OM OM1 5266 -0.550000 15.99940
5267 OM 5267 OM OM1 5267 -0.550000 15.99940
5268 OM 5268 OM OM1 5268 -0.550000 15.99940
5269 OM 5269 OM OM1 5269 -0.550000 15.99940
5270 OM 5270 OM OM1 5270 -0.550000 15.99940
5271 OM 5271 OM OM1 5271 -0.550000 15.99940
5272 OM 5272 OM OM1 5272 -0.550000 15.99940
5273 OM 5273 OM OM1 5273 -0.550000 15.99940
5274 OM 5274 OM OM1 5274 -0.550000 15.99940
5275 OM 5275 OM OM1 5275 -0.550000 15.99940
5276 OM 5276 OM OM1 5276 -0.550000 15.99940
5277 OM 5277 OM OM1 5277 -0.550000 15.99940
5278 OM 5278 OM OM1 5278 -0.550000 15.99940
5279 OM 5279 OM OM1 5279 -0.550000 15.99940
5280 OM 5280 OM OM1 5280 -0.550000 15.99940
5281 OM 5281 OM OM1 5281 -0.550000 15.99940
5282 OM 5282 OM OM1 5282 -0.550000 15.99940
5283 OM 5283 OM OM1 5283 -0.550000 15.99940
5284 OM 5284 OM OM1 5284 -0.550000 15.99940
5285 OM 5285 OM OM1 5285 -0.550000 15.99940
5286 OM 5286 OM OM1 5286 -0.550000 15.99940
5287 OM 5287 OM OM1 5287 -0.550000 15.99940
5288 OM 5288 OM OM1 5288 -0.550000 15.99940
5289 OM 5289 OM OM1 5289 -0.550000 15.99940
5290 OM 5290 OM OM1 5290 -0.550000 15.99940
5291 OM 5291 OM OM1 5291 -0.550000 15.99940
5292 OM 5292 OM OM1 5292 -0.550000 15.99940
5293 OM 5293 OM OM1 5293 -0.550000 15.99940
5294 OM 5294 OM OM1 5294 -0.550000 15.99940
5295 OM 5295 OM OM1 5295 -0.550000 15.99940
5296 OM 5296 OM OM1 5296 -0.550000 15.99940
5297 OM 5297 OM OM1 5297 -0.550000 15.99940
5298 OM 5298 OM OM1 5298 -0.550000 15.99940
5299 OM 5299 OM OM1 5299 -0.550000 15.99940
5300 OM 5300 OM OM1 5300 -0.550000 15.99940
5301 OM 5301 OM OM1 5301 -0.550000 15.99940
5302 OM 5302 OM OM1 5302 -0.550000 15.99940
5303 OM 5303 OM OM1 5303 -0.550000 15.99940
5304 OM 5304 OM OM1 5304 -0.550000 15.99940
5305 OM 5305 OM OM1 5305 -0.550000 15.99940
5306 OM 5306 OM OM1 5306 -0.550000 15.99940
5307 OM 5307 OM OM1 5307 -0.550000 15.99940
5308 OM 5308 OM OM1 5308 -0.550000 15.99940
5309 OM 5309 OM OM1 5309 -0.550000 15.99940
5310 OM 5310 OM OM1 5310 -0.550000 15.99940
5311 OM 5311 OM OM1 5311 -0.550000 15.99940
5312 OM 5312 OM OM1 5312 -0.550000 15.99940
5313 OM 5313 OM OM1 5313 -0.550000 15.99940
5314 OM 5314 OM OM1 5314 -0.550000 15.99940
5315 OM 5315 OM OM1 5315 -0.550000 15.99940
5316 OM 5316 OM OM1 5316 -0.550000 15.99940
5317 OM 5317 OM OM1 5317 -0.550000 15.99940
5318 OM 5318 OM OM1 5318 -0.550000 15.99940
5319 OM 5319 OM OM1 5319 -0.550000 15.99940
5320 OM 5320 OM OM1 5320 -0.550000 15.99940
5321 OM 5321 OM OM1 5321 -0.550000 15.99940
5322 OM 5322 OM OM1 5322 -0.550000 15.99940
5323 OM 5323 OM OM1 5323 -0.550000 15.99940
5324 OM 5324 OM OM1 5324 -0.550000 15.99940
5325 OM 5325 OM OM1 5325 -0.550000 15.99940
5326 OM 5326 OM OM1 5326 -0.550000 15.99940
5327 OM 5327 OM OM1 5327 -0.550000 15.99940
5328 OM 5328 OM OM1 5328 -0.550000 15.99940
5329 OM 5329 OM OM1 5329 -0.550000 15.99940
5330 OM 5330 OM OM1 5330 -0.550000 15.99940
5331 OM 5331 OM OM1 5331 -0.550000 15.99940
5332 OM 5332 OM OM1 5332 -0.550000 15.99940
5333 OM 5333 OM OM1 5333 -0.550000 15.99940
5334 OM 5334 OM OM1 5334 -0.550000 15.99940
5335 OM 5335 OM OM1 5335 -0.550000 15.99940
5336 OM 5336 OM OM1 5336 -0.550000 15.99940
5337 OM 5337 OM OM1 5337 -0.550000 15.99940
5338 OM 5338 OM OM1 5338 -0.550000 15.99940
5339 OM 5339 OM OM1 5339 -0.550000 15.99940
5340 OM 5340 OM OM1 5340 -0.550000 15.99940
5341 OM 5341 OM OM1 5341 -0.550000 15.99940
5342 OM 5342 OM OM1 5342 -0.550000 15.99940
5343 OM 5343 OM OM1 5343 -0.550000 15.99940
5344 OM 5344 OM OM1 5344 -0.550000 15.99940
5345 OM 5345 OM OM1 5345 -0.550000 15.99940
5346 OM 5346 OM OM1 5346 -0.550000 15.99940
5347 OM 5347 OM OM1 5347 -0.550000 15.99940
5348 OM 5348 OM OM1 5348 -0.550000 15.99940
5349 OM 5349 OM OM1 5349 -0.550000 15.99940
5350 OM 5350 OM OM1 5350 -0.550000 15.99940
5351 OM 5351 OM OM1 5351 -0.550000 15.99940
5352 OM 5352 OM OM1 5352 -0.550000 15.99940
5353 OM 5353 OM OM1 5353 -0.550000 15.99940
5354 OM 5354 OM OM1 5354 -0.550000 15.99940
5355 OM 5355 OM OM1 5355 -0.550000 15.99940
5356 OM 5356 OM OM1 5356 -0.550000 15.99940
5357 OM 5357 OM OM1 5357 -0.550000 15.99940
5358 OM 5358 OM OM1 5358 -0.550000 15.99940
5359 OM 5359 OM OM1 5359 -0.550000 15.99940
5360 OM 5360 OM OM1 5360 -0.550000 15.99940
5361 OM 5361 OM OM1 5361 -0.550000 15.99940
5362 OM 5362 OM OM1 5362 -0.550000 15.99940
5363 OM 5363 OM OM1 5363 -0.550000 15.99940
5364 OM 5364 OM OM1 5364 -0.550000 15.99940
5365 OM 5365 OM OM1 5365 -0.550000 15.99940
5366 OM 5366 OM OM1 5366 -0.550000 15.99940
5367 OM 5367 OM OM1 5367 -0.550000 15.99940
5368 OM 5368 OM OM1 5368 -0.550000 15.99940
5369 OM 5369 OM OM1 5369 -0.550000 15.99940
5370 OM 5370 OM OM1 5370 -0.550000 15.99940
5371 OM 5371 OM OM1 5371 -0.550000 15.99940
5372 OM 5372 OM OM1 5372 -0.550000 15.99940
5373 OM 5373 OM OM1 5373 -0.550000 15.99940
5374 OM 5374 OM OM1 5374 -0.550000 15.99940
5375 OM 5375 OM OM1 5375 -0.550000 15.99940
5376 OM 5376 OM OM1 5376 -0.550000 15.99940
5377 OM 5377 OM OM1 5377 -0.550000 15.99940
5378 OM 5378 OM OM1 5378 -0.550000 15.99940
5379 OM 5379 OM OM1 5379 -0.550000 15.99940
5380 OM 5380 OM OM1 5380 -0.550000 15.99940
5381 OM 5381 OM OM1 5381 -0.550000 15.99940
5382 OM 5382 OM OM1 5382 -0.550000 15.99940
5383 OM 5383 OM OM1 5383 -0.550000 15.99940
5384 OM 5384 OM OM1 5384 -0.550000 15.99940
5385 OM 5385 OM OM1 5385 -0.550000 15.99940
5386 OM 5386 OM OM1 5386 -0.550000 15.99940
5387 OM 5387 OM OM1 5387 -0.550000 15.99940
5388 OM 5388 OM OM1 5388 -0.550000 15.99940
5389 OM 5389 OM OM1 5389 -0.550000 15.99940
5390 OM 5390 OM OM1 5390 -0.550000 15.99940
5391 OM 5391 OM OM1 5391 -0.550000 15.99940
5392 OM 5392 OM OM1 5392 -0.550000 15.99940
5393 OM 5393 OM OM1 5393 -0.550000 15.99940
5394 OM 5394 OM OM1 5394 -0.550000 15.99940
5395 OM 5395 OM OM1 5395 -0.550000 15.99940
5396 OM 5396 OM OM1 5396 -0.550000 15.99940
5397 OM 5397 OM OM1 5397 -0.550000 15.99940
5398 OM 5398 OM OM1 5398 -0.550000 15.99940
5399 OM 5399 OM OM1 5399 -0.550000 15.99940
5400 OM 5400 OM OM1 5400 -0.550000 15.99940
5401 OM 5401 OM OM1 5401 -0.550000 15.99940
5402 OM 5402 OM OM1 5402 -0.550000 15.99940
5403 OM 5403 OM OM1 5403 -0.550000 15.99940
5404 OM 5404 OM OM1 5404 -0.550000 15.99940
5405 OM 5405 OM OM1 5405 -0.550000 15.99940
5406 OM 5406 OM OM1 5406 -0.550000 15.99940
5407 OM 5407 OM OM1 5407 -0.550000 15.99940
5408 OM 5408 OM OM1 5408 -0.550000 15.99940
5409 OM 5409 OM OM1 5409 -0.550000 15.99940
5410 OM 5410 OM OM1 5410 -0.550000 15.99940
5411 OM 5411 OM OM1 5411 -0.550000 15.99940
5412 OM 5412 OM OM1 5412 -0.550000 15.99940
5413 OM 5413 OM OM1 5413 -0.550000 15.99940
5414 OM 5414 OM OM1 5414 -0.550000 15.99940
5415 OM 5415 OM OM1 5415 -0.550000 15.99940
5416 OM 5416 OM OM1 5416 -0.550000 15.99940
5417 OM 5417 OM OM1 5417 -0.550000 15.99940
5418 OM 5418 OM OM1 5418 -0.550000 15.99940
5419 OM 5419 OM OM1 5419 -0.550000 15.99940
5420 OM 5420 OM OM1 5420 -0.550000 15.99940
5421 OM 5421 OM OM1 5421 -0.550000 15.99940
5422 OM 5422 OM OM1 5422 -0.550000 15.99940
5423 OM 5423 OM OM1 5423 -0.550000 15.99940
5424 OM 5424 OM OM1 5424 -0.550000 15.99940
5425 OM 5425 OM OM1 5425 -0.550000 15.99940
5426 OM 5426 OM OM1 5426 -0.550000 15.99940
5427 OM 5427 OM OM1 5427 -0.550000 15.99940
5428 OM 5428 OM OM1 5428 -0.550000 15.99940
5429 OM 5429 OM OM1 5429 -0.550000 15.99940
5430 OM 5430 OM OM1 5430 -0.550000 15.99940
5431 OM 5431 OM OM1 5431 -0.550000 15.99940
5432 OM 5432 OM OM1 5432 -0.550000 15.99940
5433 OM 5433 OM OM1 5433 -0.550000 15.99940
5434 OM 5434 OM OM1 5434 -0.550000 15.99940
5435 OM 5435 OM OM1 5435 -0.550000 15.99940
5436 OM 5436 OM OM1 5436 -0.550000 15.99940
5437 OM 5437 OM OM1 5437 -0.550000 15.99940
5438 OM 5438 OM OM1 5438 -0.550000 15.99940
5439 OM 5439 OM OM1 5439 -0.550000 15.99940
5440 OM 5440 OM OM1 5440 -0.550000 15.99940
5441 OM 5441 OM OM1 5441 -0.550000 15.99940
5442 OM 5442 OM OM1 5442 -0.550000 15.99940
5443 OM 5443 OM OM1 5443 -0.550000 15.99940
5444 OM 5444 OM OM1 5444 -0.550000 15.99940
5445 OM 5445 OM OM1 5445 -0.550000 15.99940
5446 OM 5446 OM OM1 5446 -0.550000 15.99940
5447 OM 5447 OM OM1 5447 -0.550000 15.99940
5448 OM 5448 OM OM1 5448 -0.550000 15.99940
5449 OM 5449 OM OM1 5449 -0.550000 15.99940
5450 OM 5450 OM OM1 5450 -0.550000 15.99940
5451 OM 5451 OM OM1 5451 -0.550000 15.99940
5452 OM 5452 OM OM1 5452 -0.550000 15.99940
5453 OM 5453 OM OM1 5453 -0.550000 15.99940
5454 OM 5454 OM OM1 5454 -0.550000 15.99940
5455 OM 5455 OM OM1 5455 -0.550000 15.99940
5456 OM 5456 OM OM1 5456 -0.550000 15.99940
5457 OM 5457 OM OM1 5457 -0.550000 15.99940
5458 OM 5458 OM OM1 5458 -0.550000 15.99940
5459 OM 5459 OM OM1 5459 -0.550000 15.99940
5460 OM 5460 OM OM1 5460 -0.550000 15.99940
5461 OM 5461 OM OM1 5461 -0.550000 15.99940
5462 OM 5462 OM OM1 5462 -0.550000 15.99940
5463 OM 5463 OM OM1 5463 -0.550000 15.99940
5464 OM 5464 OM OM1 5464 -0.550000 15.99940
5465 OM 5465 OM OM1 5465 -0.550000 15.99940
5466 OM 5466 OM OM1 5466 -0.550000 15.99940
5467 OM 5467 OM OM1 5467 -0.550000 15.99940
5468 OM 5468 OM OM1 5468 -0.550000 15.99940
5469 OM 5469 OM OM1 5469 -0.550000 15.99940
5470 OM 5470 OM OM1 5470 -0.550000 15.99940
5471 OM 5471 OM OM1 5471 -0.550000 15.99940
5472 OM 5472 OM OM1 5472 -0.550000 15.99940
5473 OM 5473 OM OM1 5473 -0.550000 15.99940
5474 OM 5474 OM OM1 5474 -0.550000 15.99940
5475 OM 5475 OM OM1 5475 -0.550000 15.99940
5476 OM 5476 OM OM1 5476 -0.550000 15.99940
5477 OM 5477 OM OM1 5477 -0.550000 15.99940
5478 OM 5478 OM OM1 5478 -0.550000 15.99940
5479 OM 5479 OM OM1 5479 -0.550000 15.99940
5480 OM 5480 OM OM1 5480 -0.550000 15.99940
5481 OM 5481 OM OM1 5481 -0.550000 15.99940
5482 OM 5482 OM OM1 5482 -0.550000 15.99940
5483 OM 5483 OM OM1 5483 -0.550000 15.99940
5484 OM 5484 OM OM1 5484 -0.550000 15.99940
5485 OM 5485 OM OM1 5485 -0.550000 15.99940
5486 OM 5486 OM OM1 5486 -0.550000 15.99940
5487 OM 5487 OM OM1 5487 -0.550000 15.99940
5488 OM 5488 OM OM1 5488 -0.550000 15.99940
5489 OM 5489 OM OM1 5489 -0.550000 15.99940
5490 OM 5490 OM OM1 5490 -0.550000 15.99940
5491 OM 5491 OM OM1 5491 -0.550000 15.99940
5492 OM 5492 OM OM1 5492 -0.550000 15.99940
5493 OM 5493 OM OM1 5493 -0.550000 15.99940
5494 OM 5494 OM OM1 5494 -0.550000 15.99940
5495 OM 5495 OM OM1 5495 -0.550000 15.99940
5496 OM 5496 OM OM1 5496 -0.550000 15.99940
5497 OM 5497 OM OM1 5497 -0.550000 15.99940
5498 OM 5498 OM OM1 5498 -0.550000 15.99940
5499 OM 5499 OM OM1 5499 -0.550000 15.99940
5500 OM 5500 OM OM1 5500 -0.550000 15.99940
5501 OM 5501 OM OM1 5501 -0.550000 15.99940
5502 OM 5502 OM OM1 5502 -0.550000 15.99940
5503 OM 5503 OM OM1 5503 -0.550000 15.99940
5504 OM 5504 OM OM1 5504 -0.550000 15.99940
5505 OM 5505 OM OM1 5505 -0.550000 15.99940
5506 OM 5506 OM OM1 5506 -0.550000 15.99940
5507 OM 5507 OM OM1 5507 -0.550000 15.99940
5508 OM 5508 OM OM1 5508 -0.550000 15.99940
5509 OM 5509 OM OM1 5509 -0.550000 15.99940
5510 OM 5510 OM OM1 5510 -0.550000 15.99940
5511 OM 5511 OM OM1 5511 -0.550000 15.99940
5512 OM 5512 OM OM1 5512 -0.550000 15.99940
5513 OM 5513 OM OM1 5513 -0.550000 15.99940
5514 OM 5514 OM OM1 5514 -0.550000 15.99940
5515 OM 5515 OM OM1 5515 -0.550000 15.99940
5516 OM 5516 OM OM1 5516 -0.550000 15.99940
5517 OM 5517 OM OM1 5517 -0.550000 15.99940
5518 OM 5518 OM OM1 5518 -0.550000 15.99940
5519 OM 5519 OM OM1 5519 -0.550000 15.99940
5520 OM 5520 OM OM1 5520 -0.550000 15.99940
5521 OM 5521 OM OM1 5521 -0.550000 15.99940
5522 OM 5522 OM OM1 5522 -0.550000 15.99940
5523 OM 5523 OM OM1 5523 -0.550000 15.99940
5524 OM 5524 OM OM1 5524 -0.550000 15.99940
5525 OM 5525 OM OM1 5525 -0.550000 15.99940
5526 OM 5526 OM OM1 5526 -0.550000 15.99940
5527 OM 5527 OM OM1 5527 -0.550000 15.99940
5528 OM 5528 OM OM1 5528 -0.550000 15.99940
5529 OM 5529 OM OM1 5529 -0.550000 15.99940
5530 OM 5530 OM OM1 5530 -0.550000 15.99940
5531 OM 5531 OM OM1 5531 -0.550000 15.99940
5532 OM 5532 OM OM1 5532 -0.550000 15.99940
5533 OM 5533 OM OM1 5533 -0.550000 15.99940
5534 OM 5534 OM OM1 5534 -0.550000 15.99940
5535 OM 5535 OM OM1 5535 -0.550000 15.99940
5536 OM 5536 OM OM1 5536 -0.550000 15.99940
5537 OM 5537 OM OM1 5537 -0.550000 15.99940
5538 OM 5538 OM OM1 5538 -0.550000 15.99940
5539 OM 5539 OM OM1 5539 -0.550000 15.99940
5540 OM 5540 OM OM1 5540 -0.550000 15.99940
5541 OM 5541 OM OM1 5541 -0.550000 15.99940
5542 OM 5542 OM OM1 5542 -0.550000 15.99940
5543 OM 5543 OM OM1 5543 -0.550000 15.99940
5544 OM 5544 OM OM1 5544 -0.550000 15.99940
5545 OM 5545 OM OM1 5545 -0.550000 15.99940
5546 OM 5546 OM OM1 5546 -0.550000 15.99940
5547 OM 5547 OM OM1 5547 -0.550000 15.99940
5548 OM 5548 OM OM1 5548 -0.550000 15.99940
5549 OM 5549 OM OM1 5549 -0.550000 15.99940
5550 OM 5550 OM OM1 5550 -0.550000 15.99940
5551 OM 5551 OM OM1 5551 -0.550000 15.99940
5552 OM 5552 OM OM1 5552 -0.550000 15.99940
5553 OM 5553 OM OM1 5553 -0.550000 15.99940
5554 OM 5554 OM OM1 5554 -0.550000 15.99940
5555 OM 5555 OM OM1 5555 -0.550000 15.99940
5556 OM 5556 OM OM1 5556 -0.550000 15.99940
5557 OM 5557 OM OM1 5557 -0.550000 15.99940
5558 OM 5558 OM OM1 5558 -0.550000 15.99940
5559 OM 5559 OM OM1 5559 -0.550000 15.99940
5560 OM 5560 OM OM1 5560 -0.550000 15.99940
5561 OM 5561 OM OM1 5561 -0.550000 15.99940
5562 OM 5562 OM OM1 5562 -0.550000 15.99940
5563 OM 5563 OM OM1 5563 -0.550000 15.99940
5564 OM 5564 OM OM1 5564 -0.550000 15.99940
5565 OM 5565 OM OM1 5565 -0.550000 15.99940
5566 OM 5566 OM OM1 5566 -0.550000 15.99940
5567 OM 5567 OM OM1 5567 -0.550000 15.99940
5568 OM 5568 OM OM1 5568 -0.550000 15.99940
5569 OM 5569 OM OM1 5569 -0.550000 15.99940
5570 OM 5570 OM OM1 5570 -0.550000 15.99940
5571 OM 5571 OM OM1 5571 -0.550000 15.99940
5572 OM 5572 OM OM1 5572 -0.550000 15.99940
5573 OM 5573 OM OM1 5573 -0.550000 15.99940
5574 OM 5574 OM OM1 5574 -0.550000 15.99940
5575 OM 5575 OM OM1 5575 -0.550000 15.99940
5576 OM 5576 OM OM1 5576 -0.550000 15.99940
5577 OM 5577 OM OM1 5577 -0.550000 15.99940
5578 OM 5578 OM OM1 5578 -0.550000 15.99940
5579 OM 5579 OM OM1 5579 -0.550000 15.99940
5580 OM 5580 OM OM1 5580 -0.550000 15.99940
5581 OM 5581 OM OM1 5581 -0.550000 15.99940
5582 OM 5582 OM OM1 5582 -0.550000 15.99940
5583 OM 5583 OM OM1 5583 -0.550000 15.99940
5584 OM 5584 OM OM1 5584 -0.550000 15.99940
5585 OM 5585 OM OM1 5585 -0.550000 15.99940
5586 OM 5586 OM OM1 5586 -0.550000 15.99940
5587 OM 5587 OM OM1 5587 -0.550000 15.99940
5588 OM 5588 OM OM1 5588 -0.550000 15.99940
5589 OM 5589 OM OM1 5589 -0.550000 15.99940
5590 OM 5590 OM OM1 5590 -0.550000 15.99940
5591 OM 5591 OM OM1 5591 -0.550000 15.99940
5592 OM 5592 OM OM1 5592 -0.550000 15.99940
5593 OM 5593 OM OM1 5593 -0.550000 15.99940
5594 OM 5594 OM OM1 5594 -0.550000 15.99940
5595 OM 5595 OM OM1 5595 -0.550000 15.99940
5596 OM 5596 OM OM1 5596 -0.550000 15.99940
5597 OM 5597 OM OM1 5597 -0.550000 15.99940
5598 OM 5598 OM OM1 5598 -0.550000 15.99940
5599 OM 5599 OM OM1 5599 -0.550000 15.99940
5600 OM 5600 OM OM1 5600 -0.550000 15.99940
5601 OM 5601 OM OM1 5601 -0.550000 15.99940
5602 OM 5602 OM OM1 5602 -0.550000 15.99940
5603 OM 5603 OM OM1 5603 -0.550000 15.99940
5604 OM 5604 OM OM1 5604 -0.550000 15.99940
5605 OM 5605 OM OM1 5605 -0.550000 15.99940
5606 OM 5606 OM OM1 5606 -0.550000 15.99940
5607 OM 5607 OM OM1 5607 -0.550000 15.99940
5608 OM 5608 OM OM1 5608 -0.550000 15.99940
5609 OM 5609 OM OM1 5609 -0.550000 15.99940
5610 OM 5610 OM OM1 5610 -0.550000 15.99940
5611 OM 5611 OM OM1 5611 -0.550000 15.99940
5612 OM 5612 OM OM1 5612 -0.550000 15.99940
5613 OM 5613 OM OM1 5613 -0.550000 15.99940
5614 OM 5614 OM OM1 5614 -0.550000 15.99940
5615 OM 5615 OM OM1 5615 -0.550000 15.99940
5616 OM 5616 OM OM1 5616 -0.550000 15.99940
5617 OM 5617 OM OM1 5617 -0.550000 15.99940
5618 OM 5618 OM OM1 5618 -0.550000 15.99940
5619 OM 5619 OM OM1 5619 -0.550000 15.99940
5620 OM 5620 OM OM1 5620 -0.550000 15.99940
5621 OM 5621 OM OM1 5621 -0.550000 15.99940
5622 OM 5622 OM OM1 5622 -0.550000 15.99940
5623 OM 5623 OM OM1 5623 -0.550000 15.99940
5624 OM 5624 OM OM1 5624 -0.550000 15.99940
5625 OM 5625 OM OM1 5625 -0.550000 15.99940
5626 OM 5626 OM OM1 5626 -0.550000 15.99940
5627 OM 5627 OM OM1 5627 -0.550000 15.99940
5628 OM 5628 OM OM1 5628 -0.550000 15.99940
5629 OM 5629 OM OM1 5629 -0.550000 15.99940
5630 OM 5630 OM OM1 5630 -0.550000 15.99940
5631 OM 5631 OM OM1 5631 -0.550000 15.99940
5632 OM 5632 OM OM1 5632 -0.550000 15.99940
5633 OM 5633 OM OM1 5633 -0.550000 15.99940
5634 OM 5634 OM OM1 5634 -0.550000 15.99940
5635 OM 5635 OM OM1 5635 -0.550000 15.99940
5636 OM 5636 OM OM1 5636 -0.550000 15.99940
5637 OM 5637 OM OM1 5637 -0.550000 15.99940
5638 OM 5638 OM OM1 5638 -0.550000 15.99940
5639 OM 5639 OM OM1 5639 -0.550000 15.99940
5640 OM 5640 OM OM1 5640 -0.550000 15.99940
5641 OM 5641 OM OM1 5641 -0.550000 15.99940
5642 OM 5642 OM OM1 5642 -0.550000 15.99940
5643 OM 5643 OM OM1 5643 -0.550000 15.99940
5644 OM 5644 OM OM1 5644 -0.550000 15.99940
5645 OM 5645 OM OM1 5645 -0.550000 15.99940
5646 OM 5646 OM OM1 5646 -0.550000 15.99940
5647 OM 5647 OM OM1 5647 -0.550000 15.99940
5648 OM 5648 OM OM1 5648 -0.550000 15.99940
5649 OM 5649 OM OM1 5649 -0.550000 15.99940
5650 OM 5650 OM OM1 5650 -0.550000 15.99940
5651 OM 5651 OM OM1 5651 -0.550000 15.99940
5652 OM 5652 OM OM1 5652 -0.550000 15.99940
5653 OM 5653 OM OM1 5653 -0.550000 15.99940
5654 OM 5654 OM OM1 5654 -0.550000 15.99940
5655 OM 5655 OM OM1 5655 -0.550000 15.99940
5656 OM 5656 OM OM1 5656 -0.550000 15.99940
5657 OM 5657 OM OM1 5657 -0.550000 15.99940
5658 OM 5658 OM OM1 5658 -0.550000 15.99940
5659 OM 5659 OM OM1 5659 -0.550000 15.99940
5660 OM 5660 OM OM1 5660 -0.550000 15.99940
5661 OM 5661 OM OM1 5661 -0.550000 15.99940
5662 OM 5662 OM OM1 5662 -0.550000 15.99940
5663 OM 5663 OM OM1 5663 -0.550000 15.99940
5664 OM 5664 OM OM1 5664 -0.550000 15.99940
5665 OM 5665 OM OM1 5665 -0.550000 15.99940
5666 OM 5666 OM OM1 5666 -0.550000 15.99940
5667 OM 5667 OM OM1 5667 -0.550000 15.99940
5668 OM 5668 OM OM1 5668 -0.550000 15.99940
5669 OM 5669 OM OM1 5669 -0.550000 15.99940
5670 OM 5670 OM OM1 5670 -0.550000 15.99940
5671 OM 5671 OM OM1 5671 -0.550000 15.99940
5672 OM 5672 OM OM1 5672 -0.550000 15.99940
5673 OM 5673 OM OM1 5673 -0.550000 15.99940
5674 OM 5674 OM OM1 5674 -0.550000 15.99940
5675 OM 5675 OM OM1 5675 -0.550000 15.99940
5676 OM 5676 OM OM1 5676 -0.550000 15.99940
5677 OM 5677 OM OM1 5677 -0.550000 15.99940
5678 OM 5678 OM OM1 5678 -0.550000 15.99940
5679 OM 5679 OM OM1 5679 -0.550000 15.99940
5680 OM 5680 OM OM1 5680 -0.550000 15.99940
5681 OM 5681 OM OM1 5681 -0.550000 15.99940
5682 OM 5682 OM OM1 5682 -0.550000 15.99940
5683 OM 5683 OM OM1 5683 -0.550000 15.99940
5684 OM 5684 OM OM1 5684 -0.550000 15.99940
5685 OM 5685 OM OM1 5685 -0.550000 15.99940
5686 OM 5686 OM OM1 5686 -0.550000 15.99940
5687 OM 5687 OM OM1 5687 -0.550000 15.99940
5688 OM 5688 OM OM1 5688 -0.550000 15.99940
5689 OM 5689 OM OM1 5689 -0.550000 15.99940
5690 OM 5690 OM OM1 5690 -0.550000 15.99940
5691 OM 5691 OM OM1 5691 -0.550000 15.99940
5692 OM 5692 OM OM1 5692 -0.550000 15.99940
5693 OM 5693 OM OM1 5693 -0.550000 15.99940
5694 OM 5694 OM OM1 5694 -0.550000 15.99940
5695 OM 5695 OM OM1 5695 -0.550000 15.99940
5696 OM 5696 OM OM1 5696 -0.550000 15.99940
5697 OM 5697 OM OM1 5697 -0.550000 15.99940
5698 OM 5698 OM OM1 5698 -0.550000 15.99940
5699 OM 5699 OM OM1 5699 -0.550000 15.99940
5700 OM 5700 OM OM1 5700 -0.550000 15.99940
5701 OM 5701 OM OM1 5701 -0.550000 15.99940
5702 OM 5702 OM OM1 5702 -0.550000 15.99940
5703 OM 5703 OM OM1 5703 -0.550000 15.99940
5704 OM 5704 OM OM1 5704 -0.550000 15.99940
5705 OM 5705 OM OM1 5705 -0.550000 15.99940
5706 OM 5706 OM OM1 5706 -0.550000 15.99940
5707 OM 5707 OM OM1 5707 -0.550000 15.99940
5708 OM 5708 OM OM1 5708 -0.550000 15.99940
5709 OM 5709 OM OM1 5709 -0.550000 15.99940
5710 OM 5710 OM OM1 5710 -0.550000 15.99940
5711 OM 5711 OM OM1 5711 -0.550000 15.99940
5712 OM 5712 OM OM1 5712 -0.550000 15.99940
5713 OM 5713 OM OM1 5713 -0.550000 15.99940
5714 OM 5714 OM OM1 5714 -0.550000 15.99940
5715 OM 5715 OM OM1 5715 -0.550000 15.99940
5716 OM 5716 OM OM1 5716 -0.550000 15.99940
5717 OM 5717 OM OM1 5717 -0.550000 15.99940
5718 OM 5718 OM OM1 5718 -0.550000 15.99940
5719 OM 5719 OM OM1 5719 -0.550000 15.99940
5720 OM 5720 OM OM1 5720 -0.550000 15.99940
5721 OM 5721 OM OM1 5721 -0.550000 15.99940
5722 OM 5722 OM OM1 5722 -0.550000 15.99940
5723 OM 5723 OM OM1 5723 -0.550000 15.99940
5724 OM 5724 OM OM1 5724 -0.550000 15.99940
5725 OM 5725 OM OM1 5725 -0.550000 15.99940
5726 OM 5726 OM OM1 5726 -0.550000 15.99940
5727 OM 5727 OM OM1 5727 -0.550000 15.99940
5728 OM 5728 OM OM1 5728 -0.550000 15.99940
5729 OM 5729 OM OM1 5729 -0.550000 15.99940
5730 OM 5730 OM OM1 5730 -0.550000 15.99940
5731 OM 5731 OM OM1 5731 -0.550000 15.99940
5732 OM 5732 OM OM1 5732 -0.550000 15.99940
5733 OM 5733 OM OM1 5733 -0.550000 15.99940
5734 OM 5734 OM OM1 5734 -0.550000 15.99940
5735 OM 5735 OM OM1 5735 -0.550000 15.99940
5736 OM 5736 OM OM1 5736 -0.550000 15.99940
5737 OM 5737 OM OM1 5737 -0.550000 15.99940
5738 OM 5738 OM OM1 5738 -0.550000 15.99940
5739 OM 5739 OM OM1 5739 -0.550000 15.99940
5740 OM 5740 OM OM1 5740 -0.550000 15.99940
5741 OM 5741 OM OM1 5741 -0.550000 15.99940
5742 OM 5742 OM OM1 5742 -0.550000 15.99940
5743 OM 5743 OM OM1 5743 -0.550000 15.99940
5744 OM 5744 OM OM1 5744 -0.550000 15.99940
5745 OM 5745 OM OM1 5745 -0.550000 15.99940
5746 OM 5746 OM OM1 5746 -0.550000 15.99940
5747 OM 5747 OM OM1 5747 -0.550000 15.99940
5748 OM 5748 OM OM1 5748 -0.550000 15.99940
5749 OM 5749 OM OM1 5749 -0.550000 15.99940
5750 OM 5750 OM OM1 5750 -0.550000 15.99940
5751 OM 5751 OM OM1 5751 -0.550000 15.99940
5752 OM 5752 OM OM1 5752 -0.550000 15.99940
5753 OM 5753 OM OM1 5753 -0.550000 15.99940
5754 OM 5754 OM OM1 5754 -0.550000 15.99940
5755 OM 5755 OM OM1 5755 -0.550000 15.99940
5756 OM 5756 OM OM1 5756 -0.550000 15.99940
5757 OM 5757 OM OM1 5757 -0.550000 15.99940
5758 OM 5758 OM OM1 5758 -0.550000 15.99940
5759 OM 5759 OM OM1 5759 -0.550000 15.99940
5760 OM 5760 OM OM1 5760 -0.550000 15.99940
5761 OM 5761 OM OM1 5761 -0.550000 15.99940
5762 OM 5762 OM OM1 5762 -0.550000 15.99940
5763 OM 5763 OM OM1 5763 -0.550000 15.99940
5764 OM 5764 OM OM1 5764 -0.550000 15.99940
5765 OM 5765 OM OM1 5765 -0.550000 15.99940
5766 OM 5766 OM OM1 5766 -0.550000 15.99940
5767 OM 5767 OM OM1 5767 -0.550000 15.99940
5768 OM 5768 OM OM1 5768 -0.550000 15.99940
5769 OM 5769 OM OM1 5769 -0.550000 15.99940
5770 OM 5770 OM OM1 5770 -0.550000 15.99940
5771 OM 5771 OM OM1 5771 -0.550000 15.99940
5772 OM 5772 OM OM1 5772 -0.550000 15.99940
5773 OM 5773 OM OM1 5773 -0.550000 15.99940
5774 OM 5774 OM OM1 5774 -0.550000 15.99940
5775 OM 5775 OM OM1 5775 -0.550000 15.99940
5776 OM 5776 OM OM1 5776 -0.550000 15.99940
5777 OM 5777 OM OM1 5777 -0.550000 15.99940
5778 OM 5778 OM OM1 5778 -0.550000 15.99940
5779 OM 5779 OM OM1 5779 -0.550000 15.99940
5780 OM 5780 OM OM1 5780 -0.550000 15.99940
5781 OM 5781 OM OM1 5781 -0.550000 15.99940
5782 OM 5782 OM OM1 5782 -0.550000 15.99940
5783 OM 5783 OM OM1 5783 -0.550000 15.99940
5784 OM 5784 OM OM1 5784 -0.550000 15.99940
5785 OM 5785 OM OM1 5785 -0.550000 15.99940
5786 OM 5786 OM OM1 5786 -0.550000 15.99940
5787 OM 5787 OM OM1 5787 -0.550000 15.99940
5788 OM 5788 OM OM1 5788 -0.550000 15.99940
5789 OM 5789 OM OM1 5789 -0.550000 15.99940
5790 OM 5790 OM OM1 5790 -0.550000 15.99940
5791 OM 5791 OM OM1 5791 -0.550000 15.99940
5792 OM 5792 OM OM1 5792 -0.550000 15.99940
5793 OM 5793 OM OM1 5793 -0.550000 15.99940
5794 OM 5794 OM OM1 5794 -0.550000 15.99940
5795 OM 5795 OM OM1 5795 -0.550000 15.99940
5796 OM 5796 OM OM1 5796 -0.550000 15.99940
5797 OM 5797 OM OM1 5797 -0.550000 15.99940
5798 OM 5798 OM OM1 5798 -0.550000 15.99940
5799 OM 5799 OM OM1 5799 -0.550000 15.99940
5800 OM 5800 OM OM1 5800 -0.550000 15.99940
5801 OM 5801 OM OM1 5801 -0.550000 15.99940
5802 OM 5802 OM OM1 5802 -0.550000 15.99940
5803 OM 5803 OM OM1 5803 -0.550000 15.99940
5804 OM 5804 OM OM1 5804 -0.550000 15.99940
5805 OM 5805 OM OM1 5805 -0.550000 15.99940
5806 OM 5806 OM OM1 5806 -0.550000 15.99940
5807 OM 5807 OM OM1 5807 -0.550000 15.99940
5808 OM 5808 OM OM1 5808 -0.550000 15.99940
5809 OM 5809 OM OM1 5809 -0.550000 15.99940
5810 OM 5810 OM OM1 5810 -0.550000 15.99940
5811 OM 5811 OM OM1 5811 -0.550000 15.99940
5812 OM 5812 OM OM1 5812 -0.550000 15.99940
5813 OM 5813 OM OM1 5813 -0.550000 15.99940
5814 OM 5814 OM OM1 5814 -0.550000 15.99940
5815 OM 5815 OM OM1 5815 -0.550000 15.99940
5816 OM 5816 OM OM1 5816 -0.550000 15.99940
5817 OM 5817 OM OM1 5817 -0.550000 15.99940
5818 OM 5818 OM OM1 5818 -0.550000 15.99940
5819 OM 5819 OM OM1 5819 -0.550000 15.99940
5820 OM 5820 OM OM1 5820 -0.550000 15.99940
5821 OM 5821 OM OM1 5821 -0.550000 15.99940
5822 OM 5822 OM OM1 5822 -0.550000 15.99940
5823 OM 5823 OM OM1 5823 -0.550000 15.99940
5824 OM 5824 OM OM1 5824 -0.550000 15.99940
5825 OM 5825 OM OM1 5825 -0.550000 15.99940
5826 OM 5826 OM OM1 5826 -0.550000 15.99940
5827 OM 5827 OM OM1 5827 -0.550000 15.99940
5828 OM 5828 OM OM1 5828 -0.550000 15.99940
5829 OM 5829 OM OM1 5829 -0.550000 15.99940
5830 OM 5830 OM OM1 5830 -0.550000 15.99940
5831 OM 5831 OM OM1 5831 -0.550000 15.99940
5832 OM 5832 OM OM1 5832 -0.550000 15.99940
5833 OM 5833 OM OM1 5833 -0.550000 15.99940
5834 OM 5834 OM OM1 5834 -0.550000 15.99940
5835 OM 5835 OM OM1 5835 -0.550000 15.99940
5836 OM 5836 OM OM1 5836 -0.550000 15.99940
5837 OM 5837 OM OM1 5837 -0.550000 15.99940
5838 OM 5838 OM OM1 5838 -0.550000 15.99940
5839 OM 5839 OM OM1 5839 -0.550000 15.99940
5840 OM 5840 OM OM1 5840 -0.550000 15.99940
5841 OM 5841 OM OM1 5841 -0.550000 15.99940
5842 OM 5842 OM OM1 5842 -0.550000 15.99940
5843 OM 5843 OM OM1 5843 -0.550000 15.99940
5844 OM 5844 OM OM1 5844 -0.550000 15.99940
5845 OM 5845 OM OM1 5845 -0.550000 15.99940
5846 OM 5846 OM OM1 5846 -0.550000 15.99940
5847 OM 5847 OM OM1 5847 -0.550000 15.99940
5848 OM 5848 OM OM1 5848 -0.550000 15.99940
5849 OM 5849 OM OM1 5849 -0.550000 15.99940
5850 OM 5850 OM OM1 5850 -0.550000 15.99940
5851 OM 5851 OM OM1 5851 -0.550000 15.99940
5852 OM 5852 OM OM1 5852 -0.550000 15.99940
5853 OM 5853 OM OM1 5853 -0.550000 15.99940
5854 OM 5854 OM OM1 5854 -0.550000 15.99940
5855 OM 5855 OM OM1 5855 -0.550000 15.99940
5856 OM 5856 OM OM1 5856 -0.550000 15.99940
5857 OM 5857 OM OM1 5857 -0.550000 15.99940
5858 OM 5858 OM OM1 5858 -0.550000 15.99940
5859 OM 5859 OM OM1 5859 -0.550000 15.99940
5860 OM 5860 OM OM1 5860 -0.550000 15.99940
5861 OM 5861 OM OM1 5861 -0.550000 15.99940
5862 OM 5862 OM OM1 5862 -0.550000 15.99940
5863 OM 5863 OM OM1 5863 -0.550000 15.99940
5864 OM 5864 OM OM1 5864 -0.550000 15.99940
5865 OM 5865 OM OM1 5865 -0.550000 15.99940
5866 OM 5866 OM OM1 5866 -0.550000 15.99940
5867 OM 5867 OM OM1 5867 -0.550000 15.99940
5868 OM 5868 OM OM1 5868 -0.550000 15.99940
5869 OM 5869 OM OM1 5869 -0.550000 15.99940
5870 OM 5870 OM OM1 5870 -0.550000 15.99940
5871 OM 5871 OM OM1 5871 -0.550000 15.99940
5872 OM 5872 OM OM1 5872 -0.550000 15.99940
5873 OM 5873 OM OM1 5873 -0.550000 15.99940
5874 OM 5874 OM OM1 5874 -0.550000 15.99940
5875 OM 5875 OM OM1 5875 -0.550000 15.99940
5876 OM 5876 OM OM1 5876 -0.550000 15.99940
5877 OM 5877 OM OM1 5877 -0.550000 15.99940
5878 OM 5878 OM OM1 5878 -0.550000 15.99940
5879 OM 5879 OM OM1 5879 -0.550000 15.99940
5880 OM 5880 OM OM1 5880 -0.550000 15.99940
5881 OM 5881 OM OM1 5881 -0.550000 15.99940
5882 OM 5882 OM OM1 5882 -0.550000 15.99940
5883 OM 5883 OM OM1 5883 -0.550000 15.99940
5884 OM 5884 OM OM1 5884 -0.550000 15.99940
5885 OM 5885 OM OM1 5885 -0.550000 15.99940
5886 OM 5886 OM OM1 5886 -0.550000 15.99940
5887 OM 5887 OM OM1 5887 -0.550000 15.99940
5888 OM 5888 OM OM1 5888 -0.550000 15.99940
5889 OM 5889 OM OM1 5889 -0.550000 15.99940
5890 OM 5890 OM OM1 5890 -0.550000 15.99940
5891 OM 5891 OM OM1 5891 -0.550000 15.99940
5892 OM 5892 OM OM1 5892 -0.550000 15.99940
5893 OM 5893 OM OM1 5893 -0.550000 15.99940
5894 OM 5894 OM OM1 5894 -0.550000 15.99940
5895 OM 5895 OM OM1 5895 -0.550000 15.99940
5896 OM 5896 OM OM1 5896 -0.550000 15.99940
5897 OM 5897 OM OM1 5897 -0.550000 15.99940
5898 OM 5898 OM OM1 5898 -0.550000 15.99940
5899 OM 5899 OM OM1 5899 -0.550000 15.99940
5900 OM 5900 OM OM1 5900 -0.550000 15.99940
5901 OM 5901 OM OM1 5901 -0.550000 15.99940
5902 OM 5902 OM OM1 5902 -0.550000 15.99940
5903 OM 5903 OM OM1 5903 -0.550000 15.99940
5904 OM 5904 OM OM1 5904 -0.550000 15.99940
5905 OM 5905 OM OM1 5905 -0.550000 15.99940
5906 OM 5906 OM OM1 5906 -0.550000 15.99940
5907 OM 5907 OM OM1 5907 -0.550000 15.99940
5908 OM 5908 OM OM1 5908 -0.550000 15.99940
5909 OM 5909 OM OM1 5909 -0.550000 15.99940
5910 OM 5910 OM OM1 5910 -0.550000 15.99940
5911 OM 5911 OM OM1 5911 -0.550000 15.99940
5912 OM 5912 OM OM1 5912 -0.550000 15.99940
5913 OM 5913 OM OM1 5913 -0.550000 15.99940
5914 OM 5914 OM OM1 5914 -0.550000 15.99940
5915 OM 5915 OM OM1 5915 -0.550000 15.99940
5916 OM 5916 OM OM1 5916 -0.550000 15.99940
5917 OM 5917 OM OM1 5917 -0.550000 15.99940
5918 OM 5918 OM OM1 5918 -0.550000 15.99940
5919 OM 5919 OM OM1 5919 -0.550000 15.99940
5920 OM 5920 OM OM1 5920 -0.550000 15.99940
5921 OM 5921 OM OM1 5921 -0.550000 15.99940
5922 OM 5922 OM OM1 5922 -0.550000 15.99940
5923 OM 5923 OM OM1 5923 -0.550000 15.99940
5924 OM 5924 OM OM1 5924 -0.550000 15.99940
5925 OM 5925 OM OM1 5925 -0.550000 15.99940
5926 OM 5926 OM OM1 5926 -0.550000 15.99940
5927 OM 5927 OM OM1 5927 -0.550000 15.99940
5928 OM 5928 OM OM1 5928 -0.550000 15.99940
5929 OM 5929 OM OM1 5929 -0.550000 15.99940
5930 OM 5930 OM OM1 5930 -0.550000 15.99940
5931 OM 5931 OM OM1 5931 -0.550000 15.99940
5932 OM 5932 OM OM1 5932 -0.550000 15.99940
5933 OM 5933 OM OM1 5933 -0.550000 15.99940
5934 OM 5934 OM OM1 5934 -0.550000 15.99940
5935 OM 5935 OM OM1 5935 -0.550000 15.99940
5936 OM 5936 OM OM1 5936 -0.550000 15.99940
5937 OM 5937 OM OM1 5937 -0.550000 15.99940
5938 OM 5938 OM OM1 5938 -0.550000 15.99940
5939 OM 5939 OM OM1 5939 -0.550000 15.99940
5940 OM 5940 OM OM1 5940 -0.550000 15.99940
5941 OM 5941 OM OM1 5941 -0.550000 15.99940
5942 OM 5942 OM OM1 5942 -0.550000 15.99940
5943 OM 5943 OM OM1 5943 -0.550000 15.99940
5944 OM 5944 OM OM1 5944 -0.550000 15.99940
5945 OM 5945 OM OM1 5945 -0.550000 15.99940
5946 OM 5946 OM OM1 5946 -0.550000 15.99940
5947 OM 5947 OM OM1 5947 -0.550000 15.99940
5948 OM 5948 OM OM1 5948 -0.550000 15.99940
5949 OM 5949 OM OM1 5949 -0.550000 15.99940
5950 OM 5950 OM OM1 5950 -0.550000 15.99940
5951 OM 5951 OM OM1 5951 -0.550000 15.99940
5952 OM 5952 OM OM1 5952 -0.550000 15.99940
5953 OM 5953 OM OM1 5953 -0.550000 15.99940
5954 OM 5954 OM OM1 5954 -0.550000 15.99940
5955 OM 5955 OM OM1 5955 -0.550000 15.99940
5956 OM 5956 OM OM1 5956 -0.550000 15.99940
5957 OM 5957 OM OM1 5957 -0.550000 15.99940
5958 OM 5958 OM OM1 5958 -0.550000 15.99940
5959 OM 5959 OM OM1 5959 -0.550000 15.99940
5960 OM 5960 OM OM1 5960 -0.550000 15.99940
5961 OM 5961 OM OM1 5961 -0.550000 15.99940
5962 OM 5962 OM OM1 5962 -0.550000 15.99940
5963 OM 5963 OM OM1 5963 -0.550000 15.99940
5964 OM 5964 OM OM1 5964 -0.550000 15.99940
5965 OM 5965 OM OM1 5965 -0.550000 15.99940
5966 OM 5966 OM OM1 5966 -0.550000 15.99940
5967 OM 5967 OM OM1 5967 -0.550000 15.99940
5968 OM 5968 OM OM1 5968 -0.550000 15.99940
5969 OM 5969 OM OM1 5969 -0.550000 15.99940
5970 OM 5970 OM OM1 5970 -0.550000 15.99940
5971 OM 5971 OM OM1 5971 -0.550000 15.99940
5972 OM 5972 OM OM1 5972 -0.550000 15.99940
5973 OM 5973 OM OM1 5973 -0.550000 15.99940
5974 OM 5974 OM OM1 5974 -0.550000 15.99940
5975 OM 5975 OM OM1 5975 -0.550000 15.99940
5976 OM 5976 OM OM1 5976 -0.550000 15.99940
5977 OM 5977 OM OM1 5977 -0.550000 15.99940
5978 OM 5978 OM OM1 5978 -0.550000 15.99940
5979 OM 5979 OM OM1 5979 -0.550000 15.99940
5980 OM 5980 OM OM1 5980 -0.550000 15.99940
5981 OM 5981 OM OM1 5981 -0.550000 15.99940
5982 OM 5982 OM OM1 5982 -0.550000 15.99940
5983 OM 5983 OM OM1 5983 -0.550000 15.99940
5984 OM 5984 OM OM1 5984 -0.550000 15.99940
5985 OM 5985 OM OM1 5985 -0.550000 15.99940
5986 OM 5986 OM OM1 5986 -0.550000 15.99940
5987 OM 5987 OM OM1 5987 -0.550000 15.99940
5988 OM 5988 OM OM1 5988 -0.550000 15.99940
5989 OM 5989 OM OM1 5989 -0.550000 15.99940
5990 OM 5990 OM OM1 5990 -0.550000 15.99940
5991 OM 5991 OM OM1 5991 -0.550000 15.99940
5992 OM 5992 OM OM1 5992 -0.550000 15.99940
5993 OM 5993 OM OM1 5993 -0.550000 15.99940
5994 OM 5994 OM OM1 5994 -0.550000 15.99940
5995 OM 5995 OM OM1 5995 -0.550000 15.99940
5996 OM 5996 OM OM1 5996 -0.550000 15.99940
5997 OM 5997 OM OM1 5997 -0.550000 15.99940
5998 OM 5998 OM OM1 5998 -0.550000 15.99940
5999 OM 5999 OM OM1 5999 -0.550000 15.99940
6000 OM 6000 OM OM1 6000 -0.550000 15.99940
6001 OM 6001 OM OM1 6001 -0.550000 15.99940
6002 OM 6002 OM OM1 6002 -0.550000 15.99940
6003 OM 6003 OM OM1 6003 -0.550000 15.99940
6004 OM 6004 OM OM1 6004 -0.550000 15.99940
6005 OM 6005 OM OM1 6005 -0.550000 15.99940
6006 OM 6006 OM OM1 6006 -0.550000 15.99940
6007 OM 6007 OM OM1 6007 -0.550000 15.99940
6008 OM 6008 OM OM1 6008 -0.550000 15.99940
6009 OM 6009 OM OM1 6009 -0.550000 15.99940
6010 OM 6010 OM OM1 6010 -0.550000 15.99940
6011 OM 6011 OM OM1 6011 -0.550000 15.99940
6012 OM 6012 OM OM1 6012 -0.550000 15.99940
6013 OM 6013 OM OM1 6013 -0.550000 15.99940
6014 OM 6014 OM OM1 6014 -0.550000 15.99940
6015 OM 6015 OM OM1 6015 -0.550000 15.99940
6016 OM 6016 OM OM1 6016 -0.550000 15.99940
6017 OM 6017 OM OM1 6017 -0.550000 15.99940
6018 OM 6018 OM OM1 6018 -0.550000 15.99940
6019 OM 6019 OM OM1 6019 -0.550000 15.99940
6020 OM 6020 OM OM1 6020 -0.550000 15.99940
6021 OM 6021 OM OM1 6021 -0.550000 15.99940
6022 OM 6022 OM OM1 6022 -0.550000 15.99940
6023 OM 6023 OM OM1 6023 -0.550000 15.99940
6024 OM 6024 OM OM1 6024 -0.550000 15.99940
6025 OM 6025 OM OM1 6025 -0.550000 15.99940
6026 OM 6026 OM OM1 6026 -0.550000 15.99940
6027 OM 6027 OM OM1 6027 -0.550000 15.99940
6028 OM 6028 OM OM1 6028 -0.550000 15.99940
6029 OM 6029 OM OM1 6029 -0.550000 15.99940
6030 OM 6030 OM OM1 6030 -0.550000 15.99940
6031 OM 6031 OM OM1 6031 -0.550000 15.99940
6032 OM 6032 OM OM1 6032 -0.550000 15.99940
6033 OM 6033 OM OM1 6033 -0.550000 15.99940
6034 OM 6034 OM OM1 6034 -0.550000 15.99940
6035 OM 6035 OM OM1 6035 -0.550000 15.99940
6036 OM 6036 OM OM1 6036 -0.550000 15.99940
6037 OM 6037 OM OM1 6037 -0.550000 15.99940
6038 OM 6038 OM OM1 6038 -0.550000 15.99940
6039 OM 6039 OM OM1 6039 -0.550000 15.99940
6040 OM 6040 OM OM1 6040 -0.550000 15.99940
6041 OM 6041 OM OM1 6041 -0.550000 15.99940
6042 OM 6042 OM OM1 6042 -0.550000 15.99940
6043 OM 6043 OM OM1 6043 -0.550000 15.99940
6044 OM 6044 OM OM1 6044 -0.550000 15.99940
6045 OM 6045 OM OM1 6045 -0.550000 15.99940
6046 OM 6046 OM OM1 6046 -0.550000 15.99940
6047 OM 6047 OM OM1 6047 -0.550000 15.99940
6048 OM 6048 OM OM1 6048 -0.550000 15.99940
6049 OM 6049 OM OM1 6049 -0.550000 15.99940
6050 OM 6050 OM OM1 6050 -0.550000 15.99940
6051 OM 6051 OM OM1 6051 -0.550000 15.99940
6052 OM 6052 OM OM1 6052 -0.550000 15.99940
6053 OM 6053 OM OM1 6053 -0.550000 15.99940
6054 OM 6054 OM OM1 6054 -0.550000 15.99940
6055 OM 6055 OM OM1 6055 -0.550000 15.99940
6056 OM 6056 OM OM1 6056 -0.550000 15.99940
6057 OM 6057 OM OM1 6057 -0.550000 15.99940
6058 OM 6058 OM OM1 6058 -0.550000 15.99940
6059 OM 6059 OM OM1 6059 -0.550000 15.99940
6060 OM 6060 OM OM1 6060 -0.550000 15.99940
6061 OM 6061 OM OM1 6061 -0.550000 15.99940
6062 OM 6062 OM OM1 6062 -0.550000 15.99940
6063 OM 6063 OM OM1 6063 -0.550000 15.99940
6064 OM 6064 OM OM1 6064 -0.550000 15.99940
6065 OM 6065 OM OM1 6065 -0.550000 15.99940
6066 OM 6066 OM OM1 6066 -0.550000 15.99940
6067 OM 6067 OM OM1 6067 -0.550000 15.99940
6068 OM 6068 OM OM1 6068 -0.550000 15.99940
6069 OM 6069 OM OM1 6069 -0.550000 15.99940
6070 OM 6070 OM OM1 6070 -0.550000 15.99940
6071 OM 6071 OM OM1 6071 -0.550000 15.99940
6072 OM 6072 OM OM1 6072 -0.550000 15.99940
6073 OM 6073 OM OM1 6073 -0.550000 15.99940
6074 OM 6074 OM OM1 6074 -0.550000 15.99940
6075 OM 6075 OM OM1 6075 -0.550000 15.99940
6076 OM 6076 OM OM1 6076 -0.550000 15.99940
6077 OM 6077 OM OM1 6077 -0.550000 15.99940
6078 OM 6078 OM OM1 6078 -0.550000 15.99940
6079 OM 6079 OM OM1 6079 -0.550000 15.99940
6080 OM 6080 OM OM1 6080 -0.550000 15.99940
6081 OM 6081 OM OM1 6081 -0.550000 15.99940
6082 OM 6082 OM OM1 6082 -0.550000 15.99940
6083 OM 6083 OM OM1 6083 -0.550000 15.99940
6084 OM 6084 OM OM1 6084 -0.550000 15.99940
6085 OM 6085 OM OM1 6085 -0.550000 15.99940
6086 OM 6086 OM OM1 6086 -0.550000 15.99940
6087 OM 6087 OM OM1 6087 -0.550000 15.99940
6088 OM 6088 OM OM1 6088 -0.550000 15.99940
6089 OM 6089 OM OM1 6089 -0.550000 15.99940
6090 OM 6090 OM OM1 6090 -0.550000 15.99940
6091 OM 6091 OM OM1 6091 -0.550000 15.99940
6092 OM 6092 OM OM1 6092 -0.550000 15.99940
6093 OM 6093 OM OM1 6093 -0.550000 15.99940
6094 OM 6094 OM OM1 6094 -0.550000 15.99940
6095 OM 6095 OM OM1 6095 -0.550000 15.99940
6096 OM 6096 OM OM1 6096 -0.550000 15.99940
6097 OM 6097 OM OM1 6097 -0.550000 15.99940
6098 OM 6098 OM OM1 6098 -0.550000 15.99940
6099 OM 6099 OM OM1 6099 -0.550000 15.99940
6100 OM 6100 OM OM1 6100 -0.550000 15.99940
6101 OM 6101 OM OM1 6101 -0.550000 15.99940
6102 OM 6102 OM OM1 6102 -0.550000 15.99940
6103 OM 6103 OM OM1 6103 -0.550000 15.99940
6104 OM 6104 OM OM1 6104 -0.550000 15.99940
6105 OM 6105 OM OM1 6105 -0.550000 15.99940
6106 OM 6106 OM OM1 6106 -0.550000 15.99940
6107 OM 6107 OM OM1 6107 -0.550000 15.99940
6108 OM 6108 OM OM1 6108 -0.550000 15.99940
6109 OM 6109 OM OM1 6109 -0.550000 15.99940
6110 OM 6110 OM OM1 6110 -0.550000 15.99940
6111 OM 6111 OM OM1 6111 -0.550000 15.99940
6112 OM 6112 OM OM1 6112 -0.550000 15.99940
6113 OM 6113 OM OM1 6113 -0.550000 15.99940
6114 OM 6114 OM OM1 6114 -0.550000 15.99940
6115 OM 6115 OM OM1 6115 -0.550000 15.99940
6116 OM 6116 OM OM1 6116 -0.550000 15.99940
6117 OM 6117 OM OM1 6117 -0.550000 15.99940
6118 OM 6118 OM OM1 6118 -0.550000 15.99940
6119 OM 6119 OM OM1 6119 -0.550000 15.99940
6120 OM 6120 OM OM1 6120 -0.550000 15.99940
6121 OM 6121 OM OM1 6121 -0.550000 15.99940
6122 OM 6122 OM OM1 6122 -0.550000 15.99940
6123 OM 6123 OM OM1 6123 -0.550000 15.99940
6124 OM 6124 OM OM1 6124 -0.550000 15.99940
6125 OM 6125 OM OM1 6125 -0.550000 15.99940
6126 OM 6126 OM OM1 6126 -0.550000 15.99940
6127 OM 6127 OM OM1 6127 -0.550000 15.99940
6128 OM 6128 OM OM1 6128 -0.550000 15.99940
6129 OM 6129 OM OM1 6129 -0.550000 15.99940
6130 OM 6130 OM OM1 6130 -0.550000 15.99940
6131 OM 6131 OM OM1 6131 -0.550000 15.99940
6132 OM 6132 OM OM1 6132 -0.550000 15.99940
6133 OM 6133 OM OM1 6133 -0.550000 15.99940
6134 OM 6134 OM OM1 6134 -0.550000 15.99940
6135 OM 6135 OM OM1 6135 -0.550000 15.99940
6136 OM 6136 OM OM1 6136 -0.550000 15.99940
6137 OM 6137 OM OM1 6137 -0.550000 15.99940
6138 OM 6138 OM OM1 6138 -0.550000 15.99940
6139 OM 6139 OM OM1 6139 -0.550000 15.99940
6140 OM 6140 OM OM1 6140 -0.550000 15.99940
6141 OM 6141 OM OM1 6141 -0.550000 15.99940
6142 OM 6142 OM OM1 6142 -0.550000 15.99940
6143 OM 6143 OM OM1 6143 -0.550000 15.99940
6144 OM 6144 OM OM1 6144 -0.550000 15.99940
6145 OM 6145 OM OM1 6145 -0.550000 15.99940
6146 OM 6146 OM OM1 6146 -0.550000 15.99940
6147 OM 6147 OM OM1 6147 -0.550000 15.99940
6148 OM 6148 OM OM1 6148 -0.550000 15.99940
6149 OM 6149 OM OM1 6149 -0.550000 15.99940
6150 OM 6150 OM OM1 6150 -0.550000 15.99940
6151 OM 6151 OM OM1 6151 -0.550000 15.99940
6152 OM 6152 OM OM1 6152 -0.550000 15.99940
6153 OM 6153 OM OM1 6153 -0.550000 15.99940
6154 OM 6154 OM OM1 6154 -0.550000 15.99940
6155 OM 6155 OM OM1 6155 -0.550000 15.99940
6156 OM 6156 OM OM1 6156 -0.550000 15.99940
6157 OM 6157 OM OM1 6157 -0.550000 15.99940
6158 OM 6158 OM OM1 6158 -0.550000 15.99940
6159 OM 6159 OM OM1 6159 -0.550000 15.99940
6160 OM 6160 OM OM1 6160 -0.550000 15.99940
6161 OM 6161 OM OM1 6161 -0.550000 15.99940
6162 OM 6162 OM OM1 6162 -0.550000 15.99940
6163 OM 6163 OM OM1 6163 -0.550000 15.99940
6164 OM 6164 OM OM1 6164 -0.550000 15.99940
6165 OM 6165 OM OM1 6165 -0.550000 15.99940
6166 OM 6166 OM OM1 6166 -0.550000 15.99940
6167 OM 6167 OM OM1 6167 -0.550000 15.99940
6168 OM 6168 OM OM1 6168 -0.550000 15.99940
6169 OM 6169 OM OM1 6169 -0.550000 15.99940
6170 OM 6170 OM OM1 6170 -0.550000 15.99940
6171 OM 6171 OM OM1 6171 -0.550000 15.99940
6172 OM 6172 OM OM1 6172 -0.550000 15.99940
6173 OM 6173 OM OM1 6173 -0.550000 15.99940
6174 OM 6174 OM OM1 6174 -0.550000 15.99940
6175 OM 6175 OM OM1 6175 -0.550000 15.99940
6176 OM 6176 OM OM1 6176 -0.550000 15.99940
6177 OM 6177 OM OM1 6177 -0.550000 15.99940
6178 OM 6178 OM OM1 6178 -0.550000 15.99940
6179 OM 6179 OM OM1 6179 -0.550000 15.99940
6180 OM 6180 OM OM1 6180 -0.550000 15.99940
6181 OM 6181 OM OM1 6181 -0.550000 15.99940
6182 OM 6182 OM OM1 6182 -0.550000 15.99940
6183 OM 6183 OM OM1 6183 -0.550000 15.99940
6184 OM 6184 OM OM1 6184 -0.550000 15.99940
6185 OM 6185 OM OM1 6185 -0.550000 15.99940
6186 OM 6186 OM OM1 6186 -0.550000 15.99940
6187 OM 6187 OM OM1 6187 -0.550000 15.99940
6188 OM 6188 OM OM1 6188 -0.550000 15.99940
6189 OM 6189 OM OM1 6189 -0.550000 15.99940
6190 OM 6190 OM OM1 6190 -0.550000 15.99940
6191 OM 6191 OM OM1 6191 -0.550000 15.99940
6192 OM 6192 OM OM1 6192 -0.550000 15.99940
6193 OM 6193 OM OM1 6193 -0.550000 15.99940
6194 OM 6194 OM OM1 6194 -0.550000 15.99940
6195 OM 6195 OM OM1 6195 -0.550000 15.99940
6196 OM 6196 OM OM1 6196 -0.550000 15.99940
6197 OM 6197 OM OM1 6197 -0.550000 15.99940
6198 OM 6198 OM OM1 6198 -0.550000 15.99940
6199 OM 6199 OM OM1 6199 -0.550000 15.99940
6200 OM 6200 OM OM1 6200 -0.550000 15.99940
6201 OM 6201 OM OM1 6201 -0.550000 15.99940
6202 OM 6202 OM OM1 6202 -0.550000 15.99940
6203 OM 6203 OM OM1 6203 -0.550000 15.99940
6204 OM 6204 OM OM1 6204 -0.550000 15.99940
6205 OM 6205 OM OM1 6205 -0.550000 15.99940
6206 OM 6206 OM OM1 6206 -0.550000 15.99940
6207 OM 6207 OM OM1 6207 -0.550000 15.99940
6208 OM 6208 OM OM1 6208 -0.550000 15.99940
6209 OM 6209 OM OM1 6209 -0.550000 15.99940
6210 OM 6210 OM OM1 6210 -0.550000 15.99940
6211 OM 6211 OM OM1 6211 -0.550000 15.99940
6212 OM 6212 OM OM1 6212 -0.550000 15.99940
6213 OM 6213 OM OM1 6213 -0.550000 15.99940
6214 OM 6214 OM OM1 6214 -0.550000 15.99940
6215 OM 6215 OM OM1 6215 -0.550000 15.99940
6216 OM 6216 OM OM1 6216 -0.550000 15.99940
6217 OM 6217 OM OM1 6217 -0.550000 15.99940
6218 OM 6218 OM OM1 6218 -0.550000 15.99940
6219 OM 6219 OM OM1 6219 -0.550000 15.99940
6220 OM 6220 OM OM1 6220 -0.550000 15.99940
6221 OM 6221 OM OM1 6221 -0.550000 15.99940
6222 OM 6222 OM OM1 6222 -0.550000 15.99940
6223 OM 6223 OM OM1 6223 -0.550000 15.99940
6224 OM 6224 OM OM1 6224 -0.550000 15.99940
6225 OM 6225 OM OM1 6225 -0.550000 15.99940
6226 OM 6226 OM OM1 6226 -0.550000 15.99940
6227 OM 6227 OM OM1 6227 -0.550000 15.99940
6228 OM 6228 OM OM1 6228 -0.550000 15.99940
6229 OM 6229 OM OM1 6229 -0.550000 15.99940
6230 OM 6230 OM OM1 6230 -0.550000 15.99940
6231 OM 6231 OM OM1 6231 -0.550000 15.99940
6232 OM 6232 OM OM1 6232 -0.550000 15.99940
6233 OM 6233 OM OM1 6233 -0.550000 15.99940
6234 OM 6234 OM OM1 6234 -0.550000 15.99940
6235 OM 6235 OM OM1 6235 -0.550000 15.99940
6236 OM 6236 OM OM1 6236 -0.550000 15.99940
6237 OM 6237 OM OM1 6237 -0.550000 15.99940
6238 OM 6238 OM OM1 6238 -0.550000 15.99940
6239 OM 6239 OM OM1 6239 -0.550000 15.99940
6240 OM 6240 OM OM1 6240 -0.550000 15.99940
6241 OM 6241 OM OM1 6241 -0.550000 15.99940
6242 OM 6242 OM OM1 6242 -0.550000 15.99940
6243 OM 6243 OM OM1 6243 -0.550000 15.99940
6244 OM 6244 OM OM1 6244 -0.550000 15.99940
6245 OM 6245 OM OM1 6245 -0.550000 15.99940
6246 OM 6246 OM OM1 6246 -0.550000 15.99940
6247 OM 6247 OM OM1 6247 -0.550000 15.99940
6248 OM 6248 OM OM1 6248 -0.550000 15.99940
6249 OM 6249 OM OM1 6249 -0.550000 15.99940
6250 OM 6250 OM OM1 6250 -0.550000 15.99940
6251 OM 6251 OM OM1 6251 -0.550000 15.99940
6252 OM 6252 OM OM1 6252 -0.550000 15.99940
6253 OM 6253 OM OM1 6253 -0.550000 15.99940
6254 OM 6254 OM OM1 6254 -0.550000 15.99940
6255 OM 6255 OM OM1 6255 -0.550000 15.99940
6256 OM 6256 OM OM1 6256 -0.550000 15.99940
6257 OM 6257 OM OM1 6257 -0.550000 15.99940
6258 OM 6258 OM OM1 6258 -0.550000 15.99940
6259 OM 6259 OM OM1 6259 -0.550000 15.99940
6260 OM 6260 OM OM1 6260 -0.550000 15.99940
6261 OM 6261 OM OM1 6261 -0.550000 15.99940
6262 OM 6262 OM OM1 6262 -0.550000 15.99940
6263 OM 6263 OM OM1 6263 -0.550000 15.99940
6264 OM 6264 OM OM1 6264 -0.550000 15.99940
6265 OM 6265 OM OM1 6265 -0.550000 15.99940
6266 OM 6266 OM OM1 6266 -0.550000 15.99940
6267 OM 6267 OM OM1 6267 -0.550000 15.99940
6268 OM 6268 OM OM1 6268 -0.550000 15.99940
6269 OM 6269 OM OM1 6269 -0.550000 15.99940
6270 OM 6270 OM OM1 6270 -0.550000 15.99940
6271 OM 6271 OM OM1 6271 -0.550000 15.99940
6272 OM 6272 OM OM1 6272 -0.550000 15.99940
6273 OM 6273 OM OM1 6273 -0.550000 15.99940
6274 OM 6274 OM OM1 6274 -0.550000 15.99940
6275 OM 6275 OM OM1 6275 -0.550000 15.99940
6276 OM 6276 OM OM1 6276 -0.550000 15.99940
6277 OM 6277 OM OM1 6277 -0.550000 15.99940
6278 OM 6278 OM OM1 6278 -0.550000 15.99940
6279 OM 6279 OM OM1 6279 -0.550000 15.99940
6280 OM 6280 OM OM1 6280 -0.550000 15.99940
6281 OM 6281 OM OM1 6281 -0.550000 15.99940
6282 OM 6282 OM OM1 6282 -0.550000 15.99940
6283 OM 6283 OM OM1 6283 -0.550000 15.99940
6284 OM 6284 OM OM1 6284 -0.550000 15.99940
6285 OM 6285 OM OM1 6285 -0.550000 15.99940
6286 OM 6286 OM OM1 6286 -0.550000 15.99940
6287 OM 6287 OM OM1 6287 -0.550000 15.99940
6288 OM 6288 OM OM1 6288 -0.550000 15.99940
6289 OM 6289 OM OM1 6289 -0.550000 15.99940
6290 OM 6290 OM OM1 6290 -0.550000 15.99940
6291 OM 6291 OM OM1 6291 -0.550000 15.99940
6292 OM 6292 OM OM1 6292 -0.550000 15.99940
6293 OM 6293 OM OM1 6293 -0.550000 15.99940
6294 OM 6294 OM OM1 6294 -0.550000 15.99940
6295 OM 6295 OM OM1 6295 -0.550000 15.99940
6296 OM 6296 OM OM1 6296 -0.550000 15.99940
6297 OM 6297 OM OM1 6297 -0.550000 15.99940
6298 OM 6298 OM OM1 6298 -0.550000 15.99940
6299 OM 6299 OM OM1 6299 -0.550000 15.99940
6300 OM 6300 OM OM1 6300 -0.550000 15.99940
6301 OM 6301 OM OM1 6301 -0.550000 15.99940
6302 OM 6302 OM OM1 6302 -0.550000 15.99940
6303 OM 6303 OM OM1 6303 -0.550000 15.99940
6304 OM 6304 OM OM1 6304 -0.550000 15.99940
6305 OM 6305 OM OM1 6305 -0.550000 15.99940
6306 OM 6306 OM OM1 6306 -0.550000 15.99940
6307 OM 6307 OM OM1 6307 -0.550000 15.99940
6308 OM 6308 OM OM1 6308 -0.550000 15.99940
6309 OM 6309 OM OM1 6309 -0.550000 15.99940
6310 OM 6310 OM OM1 6310 -0.550000 15.99940
6311 OM 6311 OM OM1 6311 -0.550000 15.99940
6312 OM 6312 OM OM1 6312 -0.550000 15.99940
6313 OM 6313 OM OM1 6313 -0.550000 15.99940
6314 OM 6314 OM OM1 6314 -0.550000 15.99940
6315 OM 6315 OM OM1 6315 -0.550000 15.99940
6316 OM 6316 OM OM1 6316 -0.550000 15.99940
6317 OM 6317 OM OM1 6317 -0.550000 15.99940
6318 OM 6318 OM OM1 6318 -0.550000 15.99940
6319 OM 6319 OM OM1 6319 -0.550000 15.99940
6320 OM 6320 OM OM1 6320 -0.550000 15.99940
6321 OM 6321 OM OM1 6321 -0.550000 15.99940
6322 OM 6322 OM OM1 6322 -0.550000 15.99940
6323 OM 6323 OM OM1 6323 -0.550000 15.99940
6324 OM 6324 OM OM1 6324 -0.550000 15.99940
6325 OM 6325 OM OM1 6325 -0.550000 15.99940
6326 OM 6326 OM OM1 6326 -0.550000 15.99940
6327 OM 6327 OM OM1 6327 -0.550000 15.99940
6328 OM 6328 OM OM1 6328 -0.550000 15.99940
6329 OM 6329 OM OM1 6329 -0.550000 15.99940
6330 OM 6330 OM OM1 6330 -0.550000 15.99940
6331 OM 6331 OM OM1 6331 -0.550000 15.99940
6332 OM 6332 OM OM1 6332 -0.550000 15.99940
6333 OM 6333 OM OM1 6333 -0.550000 15.99940
6334 OM 6334 OM OM1 6334 -0.550000 15.99940
6335 OM 6335 OM OM1 6335 -0.550000 15.99940
6336 OM 6336 OM OM1 6336 -0.550000 15.99940
6337 OM 6337 OM OM1 6337 -0.550000 15.99940
6338 OM 6338 OM OM1 6338 -0.550000 15.99940
6339 OM 6339 OM OM1 6339 -0.550000 15.99940
6340 OM 6340 OM OM1 6340 -0.550000 15.99940
6341 OM 6341 OM OM1 6341 -0.550000 15.99940
6342 OM 6342 OM OM1 6342 -0.550000 15.99940
6343 OM 6343 OM OM1 6343 -0.550000 15.99940
6344 OM 6344 OM OM1 6344 -0.550000 15.99940
6345 OM 6345 OM OM1 6345 -0.550000 15.99940
6346 OM 6346 OM OM1 6346 -0.550000 15.99940
6347 OM 6347 OM OM1 6347 -0.550000 15.99940
6348 OM 6348 OM OM1 6348 -0.550000 15.99940
6349 OM 6349 OM OM1 6349 -0.550000 15.99940
6350 OM 6350 OM OM1 6350 -0.550000 15.99940
6351 OM 6351 OM OM1 6351 -0.550000 15.99940
6352 OM 6352 OM OM1 6352 -0.550000 15.99940
6353 OM 6353 OM OM1 6353 -0.550000 15.99940
6354 OM 6354 OM OM1 6354 -0.550000 15.99940
6355 OM 6355 OM OM1 6355 -0.550000 15.99940
6356 OM 6356 OM OM1 6356 -0.550000 15.99940
6357 OM 6357 OM OM1 6357 -0.550000 15.99940
6358 OM 6358 OM OM1 6358 -0.550000 15.99940
6359 OM 6359 OM OM1 6359 -0.550000 15.99940
6360 OM 6360 OM OM1 6360 -0.550000 15.99940
6361 OM 6361 OM OM1 6361 -0.550000 15.99940
6362 OM 6362 OM OM1 6362 -0.550000 15.99940
6363 OM 6363 OM OM1 6363 -0.550000 15.99940
6364 OM 6364 OM OM1 6364 -0.550000 15.99940
6365 OM 6365 OM OM1 6365 -0.550000 15.99940
6366 OM 6366 OM OM1 6366 -0.550000 15.99940
6367 OM 6367 OM OM1 6367 -0.550000 15.99940
6368 OM 6368 OM OM1 6368 -0.550000 15.99940
6369 OM 6369 OM OM1 6369 -0.550000 15.99940
6370 OM 6370 OM OM1 6370 -0.550000 15.99940
6371 OM 6371 OM OM1 6371 -0.550000 15.99940
6372 OM 6372 OM OM1 6372 -0.550000 15.99940
6373 OM 6373 OM OM1 6373 -0.550000 15.99940
6374 OM 6374 OM OM1 6374 -0.550000 15.99940
6375 OM 6375 OM OM1 6375 -0.550000 15.99940
6376 OM 6376 OM OM1 6376 -0.550000 15.99940
6377 OM 6377 OM OM1 6377 -0.550000 15.99940
6378 OM 6378 OM OM1 6378 -0.550000 15.99940
6379 OM 6379 OM OM1 6379 -0.550000 15.99940
6380 OM 6380 OM OM1 6380 -0.550000 15.99940
6381 OM 6381 OM OM1 6381 -0.550000 15.99940
6382 OM 6382 OM OM1 6382 -0.550000 15.99940
6383 OM 6383 OM OM1 6383 -0.550000 15.99940
6384 OM 6384 OM OM1 6384 -0.550000 15.99940
6385 OM 6385 OM OM1 6385 -0.550000 15.99940
6386 OM 6386 OM OM1 6386 -0.550000 15.99940
6387 OM 6387 OM OM1 6387 -0.550000 15.99940
6388 OM 6388 OM OM1 6388 -0.550000 15.99940
6389 OM 6389 OM OM1 6389 -0.550000 15.99940
6390 OM 6390 OM OM1 6390 -0.550000 15.99940
6391 OM 6391 OM OM1 6391 -0.550000 15.99940
6392 OM 6392 OM OM1 6392 -0.550000 15.99940
6393 OM 6393 OM OM1 6393 -0.550000 15.99940
6394 OM 6394 OM OM1 6394 -0.550000 15.99940
6395 OM 6395 OM OM1 6395 -0.550000 15.99940
6396 OM 6396 OM OM1 6396 -0.550000 15.99940
6397 OM 6397 OM OM1 6397 -0.550000 15.99940
6398 OM 6398 OM OM1 6398 -0.550000 15.99940
6399 OM 6399 OM OM1 6399 -0.550000 15.99940
6400 OM 6400 OM OM1 6400 -0.550000 15.99940
6401 OM 6401 OM OM1 6401 -0.550000 15.99940
6402 OM 6402 OM OM1 6402 -0.550000 15.99940
6403 OM 6403 OM OM1 6403 -0.550000 15.99940
6404 OM 6404 OM OM1 6404 -0.550000 15.99940
6405 OM 6405 OM OM1 6405 -0.550000 15.99940
6406 OM 6406 OM OM1 6406 -0.550000 15.99940
6407 OM 6407 OM OM1 6407 -0.550000 15.99940
6408 OM 6408 OM OM1 6408 -0.550000 15.99940
6409 OM 6409 OM OM1 6409 -0.550000 15.99940
6410 OM 6410 OM OM1 6410 -0.550000 15.99940
6411 OM 6411 OM OM1 6411 -0.550000 15.99940
6412 OM 6412 OM OM1 6412 -0.550000 15.99940
6413 OM 6413 OM OM1 6413 -0.550000 15.99940
6414 OM 6414 OM OM1 6414 -0.550000 15.99940
6415 OM 6415 OM OM1 6415 -0.550000 15.99940
6416 OM 6416 OM OM1 6416 -0.550000 15.99940
6417 OM 6417 OM OM1 6417 -0.550000 15.99940
6418 OM 6418 OM OM1 6418 -0.550000 15.99940
6419 OM 6419 OM OM1 6419 -0.550000 15.99940
6420 OM 6420 OM OM1 6420 -0.550000 15.99940
6421 OM 6421 OM OM1 6421 -0.550000 15.99940
6422 OM 6422 OM OM1 6422 -0.550000 15.99940
6423 OM 6423 OM OM1 6423 -0.550000 15.99940
6424 OM 6424 OM OM1 6424 -0.550000 15.99940
6425 OM 6425 OM OM1 6425 -0.550000 15.99940
6426 OM 6426 OM OM1 6426 -0.550000 15.99940
6427 OM 6427 OM OM1 6427 -0.550000 15.99940
6428 OM 6428 OM OM1 6428 -0.550000 15.99940
6429 OM 6429 OM OM1 6429 -0.550000 15.99940
6430 OM 6430 OM OM1 6430 -0.550000 15.99940
6431 OM 6431 OM OM1 6431 -0.550000 15.99940
6432 OM 6432 OM OM1 6432 -0.550000 15.99940
6433 OM 6433 OM OM1 6433 -0.550000 15.99940
6434 OM 6434 OM OM1 6434 -0.550000 15.99940
6435 OM 6435 OM OM1 6435 -0.550000 15.99940
6436 OM 6436 OM OM1 6436 -0.550000 15.99940
6437 OM 6437 OM OM1 6437 -0.550000 15.99940
6438 OM 6438 OM OM1 6438 -0.550000 15.99940
6439 OM 6439 OM OM1 6439 -0.550000 15.99940
6440 OM 6440 OM OM1 6440 -0.550000 15.99940
6441 OM 6441 OM OM1 6441 -0.550000 15.99940
6442 OM 6442 OM OM1 6442 -0.550000 15.99940
6443 OM 6443 OM OM1 6443 -0.550000 15.99940
6444 OM 6444 OM OM1 6444 -0.550000 15.99940
6445 OM 6445 OM OM1 6445 -0.550000 15.99940
6446 OM 6446 OM OM1 6446 -0.550000 15.99940
6447 OM 6447 OM OM1 6447 -0.550000 15.99940
6448 OM 6448 OM OM1 6448 -0.550000 15.99940
6449 OM 6449 OM OM1 6449 -0.550000 15.99940
6450 OM 6450 OM OM1 6450 -0.550000 15.99940
6451 OM 6451 OM OM1 6451 -0.550000 15.99940
6452 OM 6452 OM OM1 6452 -0.550000 15.99940
6453 OM 6453 OM OM1 6453 -0.550000 15.99940
6454 OM 6454 OM OM1 6454 -0.550000 15.99940
6455 OM 6455 OM OM1 6455 -0.550000 15.99940
6456 OM 6456 OM OM1 6456 -0.550000 15.99940
6457 OM 6457 OM OM1 6457 -0.550000 15.99940
6458 OM 6458 OM OM1 6458 -0.550000 15.99940
6459 OM 6459 OM OM1 6459 -0.550000 15.99940
6460 OM 6460 OM OM1 6460 -0.550000 15.99940
6461 OM 6461 OM OM1 6461 -0.550000 15.99940
6462 OM 6462 OM OM1 6462 -0.550000 15.99940
6463 OM 6463 OM OM1 6463 -0.550000 15.99940
6464 OM 6464 OM OM1 6464 -0.550000 15.99940
6465 OM 6465 OM OM1 6465 -0.550000 15.99940
6466 OM 6466 OM OM1 6466 -0.550000 15.99940
6467 OM 6467 OM OM1 6467 -0.550000 15.99940
6468 OM 6468 OM OM1 6468 -0.550000 15.99940
6469 OM 6469 OM OM1 6469 -0.550000 15.99940
6470 OM 6470 OM OM1 6470 -0.550000 15.99940
6471 OM 6471 OM OM1 6471 -0.550000 15.99940
6472 OM 6472 OM OM1 6472 -0.550000 15.99940
6473 OM 6473 OM OM1 6473 -0.550000 15.99940
6474 OM 6474 OM OM1 6474 -0.550000 15.99940
6475 OM 6475 OM OM1 6475 -0.550000 15.99940
6476 OM 6476 OM OM1 6476 -0.550000 15.99940
6477 OM 6477 OM OM1 6477 -0.550000 15.99940
6478 OM 6478 OM OM1 6478 -0.550000 15.99940
6479 OM 6479 OM OM1 6479 -0.550000 15.99940
6480 OM 6480 OM OM1 6480 -0.550000 15.99940
6481 OM 6481 OM OM1 6481 -0.550000 15.99940
6482 OM 6482 OM OM1 6482 -0.550000 15.99940
6483 OM 6483 OM OM1 6483 -0.550000 15.99940
6484 OM 6484 OM OM1 6484 -0.550000 15.99940
6485 OM 6485 OM OM1 6485 -0.550000 15.99940
6486 OM 6486 OM OM1 6486 -0.550000 15.99940
6487 OM 6487 OM OM1 6487 -0.550000 15.99940
6488 OM 6488 OM OM1 6488 -0.550000 15.99940
6489 OM 6489 OM OM1 6489 -0.550000 15.99940
6490 OM 6490 OM OM1 6490 -0.550000 15.99940
6491 OM 6491 OM OM1 6491 -0.550000 15.99940
6492 OM 6492 OM OM1 6492 -0.550000 15.99940
6493 OM 6493 OM OM1 6493 -0.550000 15.99940
6494 OM 6494 OM OM1 6494 -0.550000 15.99940
6495 OM 6495 OM OM1 6495 -0.550000 15.99940
6496 OM 6496 OM OM1 6496 -0.550000 15.99940
6497 OM 6497 OM OM1 6497 -0.550000 15.99940
6498 OM 6498 OM OM1 6498 -0.550000 15.99940
6499 OM 6499 OM OM1 6499 -0.550000 15.99940
6500 OM 6500 OM OM1 6500 -0.550000 15.99940
6501 OM 6501 OM OM1 6501 -0.550000 15.99940
6502 OM 6502 OM OM1 6502 -0.550000 15.99940
6503 OM 6503 OM OM1 6503 -0.550000 15.99940
6504 OM 6504 OM OM1 6504 -0.550000 15.99940
6505 OM 6505 OM OM1 6505 -0.550000 15.99940
6506 OM 6506 OM OM1 6506 -0.550000 15.99940
6507 OM 6507 OM OM1 6507 -0.550000 15.99940
6508 OM 6508 OM OM1 6508 -0.550000 15.99940
6509 OM 6509 OM OM1 6509 -0.550000 15.99940
6510 OM 6510 OM OM1 6510 -0.550000 15.99940
6511 OM 6511 OM OM1 6511 -0.550000 15.99940
6512 OM 6512 OM OM1 6512 -0.550000 15.99940
6513 OM 6513 OM OM1 6513 -0.550000 15.99940
6514 OM 6514 OM OM1 6514 -0.550000 15.99940
6515 OM 6515 OM OM1 6515 -0.550000 15.99940
6516 OM 6516 OM OM1 6516 -0.550000 15.99940
6517 OM 6517 OM OM1 6517 -0.550000 15.99940
6518 OM 6518 OM OM1 6518 -0.550000 15.99940
6519 OM 6519 OM OM1 6519 -0.550000 15.99940
6520 OM 6520 OM OM1 6520 -0.550000 15.99940
6521 OM 6521 OM OM1 6521 -0.550000 15.99940
6522 OM 6522 OM OM1 6522 -0.550000 15.99940
6523 OM 6523 OM OM1 6523 -0.550000 15.99940
6524 OM 6524 OM OM1 6524 -0.550000 15.99940
6525 OM 6525 OM OM1 6525 -0.550000 15.99940
6526 OM 6526 OM OM1 6526 -0.550000 15.99940
6527 OM 6527 OM OM1 6527 -0.550000 15.99940
6528 OM 6528 OM OM1 6528 -0.550000 15.99940
6529 OM 6529 OM OM1 6529 -0.550000 15.99940
6530 OM 6530 OM OM1 6530 -0.550000 15.99940
6531 OM 6531 OM OM1 6531 -0.550000 15.99940
6532 OM 6532 OM OM1 6532 -0.550000 15.99940
6533 OM 6533 OM OM1 6533 -0.550000 15.99940
6534 OM 6534 OM OM1 6534 -0.550000 15.99940
6535 OM 6535 OM OM1 6535 -0.550000 15.99940
6536 OM 6536 OM OM1 6536 -0.550000 15.99940
6537 OM 6537 OM OM1 6537 -0.550000 15.99940
6538 OM 6538 OM OM1 6538 -0.550000 15.99940
6539 OM 6539 OM OM1 6539 -0.550000 15.99940
6540 OM 6540 OM OM1 6540 -0.550000 15.99940
6541 OM 6541 OM OM1 6541 -0.550000 15.99940
6542 OM 6542 OM OM1 6542 -0.550000 15.99940
6543 OM 6543 OM OM1 6543 -0.550000 15.99940
6544 OM 6544 OM OM1 6544 -0.550000 15.99940
6545 OM 6545 OM OM1 6545 -0.550000 15.99940
6546 OM 6546 OM OM1 6546 -0.550000 15.99940
6547 OM 6547 OM OM1 6547 -0.550000 15.99940
6548 OM 6548 OM OM1 6548 -0.550000 15.99940
6549 OM 6549 OM OM1 6549 -0.550000 15.99940
6550 OM 6550 OM OM1 6550 -0.550000 15.99940
6551 OM 6551 OM OM1 6551 -0.550000 15.99940
6552 OM 6552 OM OM1 6552 -0.550000 15.99940
6553 OM 6553 OM OM1 6553 -0.550000 15.99940
6554 OM 6554 OM OM1 6554 -0.550000 15.99940
6555 OM 6555 OM OM1 6555 -0.550000 15.99940
6556 OM 6556 OM OM1 6556 -0.550000 15.99940
6557 OM 6557 OM OM1 6557 -0.550000 15.99940
6558 OM 6558 OM OM1 6558 -0.550000 15.99940
6559 OM 6559 OM OM1 6559 -0.550000 15.99940
6560 OM 6560 OM OM1 6560 -0.550000 15.99940
6561 OM 6561 OM OM1 6561 -0.550000 15.99940
6562 OM 6562 OM OM1 6562 -0.550000 15.99940
6563 OM 6563 OM OM1 6563 -0.550000 15.99940
6564 OM 6564 OM OM1 6564 -0.550000 15.99940
6565 OM 6565 OM OM1 6565 -0.550000 15.99940
6566 OM 6566 OM OM1 6566 -0.550000 15.99940
6567 OM 6567 OM OM1 6567 -0.550000 15.99940
6568 OM 6568 OM OM1 6568 -0.550000 15.99940
6569 OM 6569 OM OM1 6569 -0.550000 15.99940
6570 OM 6570 OM OM1 6570 -0.550000 15.99940
6571 OM 6571 OM OM1 6571 -0.550000 15.99940
6572 OM 6572 OM OM1 6572 -0.550000 15.99940
6573 OM 6573 OM OM1 6573 -0.550000 15.99940
6574 OM 6574 OM OM1 6574 -0.550000 15.99940
6575 OM 6575 OM OM1 6575 -0.550000 15.99940
6576 OM 6576 OM OM1 6576 -0.550000 15.99940
6577 OM 6577 OM OM1 6577 -0.550000 15.99940
6578 OM 6578 OM OM1 6578 -0.550000 15.99940
6579 OM 6579 OM OM1 6579 -0.550000 15.99940
6580 OM 6580 OM OM1 6580 -0.550000 15.99940
6581 OM 6581 OM OM1 6581 -0.550000 15.99940
6582 OM 6582 OM OM1 6582 -0.550000 15.99940
6583 OM 6583 OM OM1 6583 -0.550000 15.99940
6584 OM 6584 OM OM1 6584 -0.550000 15.99940
6585 OM 6585 OM OM1 6585 -0.550000 15.99940
6586 OM 6586 OM OM1 6586 -0.550000 15.99940
6587 OM 6587 OM OM1 6587 -0.550000 15.99940
6588 OM 6588 OM OM1 6588 -0.550000 15.99940
6589 OM 6589 OM OM1 6589 -0.550000 15.99940
6590 OM 6590 OM OM1 6590 -0.550000 15.99940
6591 OM 6591 OM OM1 6591 -0.550000 15.99940
6592 OM 6592 OM OM1 6592 -0.550000 15.99940
6593 OM 6593 OM OM1 6593 -0.550000 15.99940
6594 OM 6594 OM OM1 6594 -0.550000 15.99940
6595 OM 6595 OM OM1 6595 -0.550000 15.99940
6596 OM 6596 OM OM1 6596 -0.550000 15.99940
6597 OM 6597 OM OM1 6597 -0.550000 15.99940
6598 OM 6598 OM OM1 6598 -0.550000 15.99940
6599 OM 6599 OM OM1 6599 -0.550000 15.99940
6600 OM 6600 OM OM1 6600 -0.550000 15.99940
6601 OM 6601 OM OM1 6601 -0.550000 15.99940
6602 OM 6602 OM OM1 6602 -0.550000 15.99940
6603 OM 6603 OM OM1 6603 -0.550000 15.99940
6604 OM 6604 OM OM1 6604 -0.550000 15.99940
6605 OM 6605 OM OM1 6605 -0.550000 15.99940
6606 OM 6606 OM OM1 6606 -0.550000 15.99940
6607 OM 6607 OM OM1 6607 -0.550000 15.99940
6608 OM 6608 OM OM1 6608 -0.550000 15.99940
6609 OM 6609 OM OM1 6609 -0.550000 15.99940
6610 OM 6610 OM OM1 6610 -0.550000 15.99940
6611 OM 6611 OM OM1 6611 -0.550000 15.99940
6612 OM 6612 OM OM1 6612 -0.550000 15.99940
6613 OM 6613 OM OM1 6613 -0.550000 15.99940
6614 OM 6614 OM OM1 6614 -0.550000 15.99940
6615 OM 6615 OM OM1 6615 -0.550000 15.99940
6616 OM 6616 OM OM1 6616 -0.550000 15.99940
6617 OM 6617 OM OM1 6617 -0.550000 15.99940
6618 OM 6618 OM OM1 6618 -0.550000 15.99940
6619 OM 6619 OM OM1 6619 -0.550000 15.99940
6620 OM 6620 OM OM1 6620 -0.550000 15.99940
6621 OM 6621 OM OM1 6621 -0.550000 15.99940
6622 OM 6622 OM OM1 6622 -0.550000 15.99940
6623 OM 6623 OM OM1 6623 -0.550000 15.99940
6624 OM 6624 OM OM1 6624 -0.550000 15.99940
6625 OM 6625 OM OM1 6625 -0.550000 15.99940
6626 OM 6626 OM OM1 6626 -0.550000 15.99940
6627 OM 6627 OM OM1 6627 -0.550000 15.99940
6628 OM 6628 OM OM1 6628 -0.550000 15.99940
6629 OM 6629 OM OM1 6629 -0.550000 15.99940
6630 OM 6630 OM OM1 6630 -0.550000 15.99940
6631 OM 6631 OM OM1 6631 -0.550000 15.99940
6632 OM 6632 OM OM1 6632 -0.550000 15.99940
6633 OM 6633 OM OM1 6633 -0.550000 15.99940
6634 OM 6634 OM OM1 6634 -0.550000 15.99940
6635 OM 6635 OM OM1 6635 -0.550000 15.99940
6636 OM 6636 OM OM1 6636 -0.550000 15.99940
6637 OM 6637 OM OM1 6637 -0.550000 15.99940
6638 OM 6638 OM OM1 6638 -0.550000 15.99940
6639 OM 6639 OM OM1 6639 -0.550000 15.99940
6640 OM 6640 OM OM1 6640 -0.550000 15.99940
6641 OM 6641 OM OM1 6641 -0.550000 15.99940
6642 OM 6642 OM OM1 6642 -0.550000 15.99940
6643 OM 6643 OM OM1 6643 -0.550000 15.99940
6644 OM 6644 OM OM1 6644 -0.550000 15.99940
6645 OM 6645 OM OM1 6645 -0.550000 15.99940
6646 OM 6646 OM OM1 6646 -0.550000 15.99940
6647 OM 6647 OM OM1 6647 -0.550000 15.99940
6648 OM 6648 OM OM1 6648 -0.550000 15.99940
6649 OM 6649 OM OM1 6649 -0.550000 15.99940
6650 OM 6650 OM OM1 6650 -0.550000 15.99940
6651 OM 6651 OM OM1 6651 -0.550000 15.99940
6652 OM 6652 OM OM1 6652 -0.550000 15.99940
6653 OM 6653 OM OM1 6653 -0.550000 15.99940
6654 OM 6654 OM OM1 6654 -0.550000 15.99940
6655 OM 6655 OM OM1 6655 -0.550000 15.99940
6656 OM 6656 OM OM1 6656 -0.550000 15.99940
6657 OM 6657 OM OM1 6657 -0.550000 15.99940
6658 OM 6658 OM OM1 6658 -0.550000 15.99940
6659 OM 6659 OM OM1 6659 -0.550000 15.99940
6660 OM 6660 OM OM1 6660 -0.550000 15.99940
6661 OM 6661 OM OM1 6661 -0.550000 15.99940
6662 OM 6662 OM OM1 6662 -0.550000 15.99940
6663 OM 6663 OM OM1 6663 -0.550000 15.99940
6664 OM 6664 OM OM1 6664 -0.550000 15.99940
6665 OM 6665 OM OM1 6665 -0.550000 15.99940
6666 OM 6666 OM OM1 6666 -0.550000 15.99940
6667 OM 6667 OM OM1 6667 -0.550000 15.99940
6668 OM 6668 OM OM1 6668 -0.550000 15.99940
6669 OM 6669 OM OM1 6669 -0.550000 15.99940
6670 OM 6670 OM OM1 6670 -0.550000 15.99940
6671 OM 6671 OM OM1 6671 -0.550000 15.99940
6672 OM 6672 OM OM1 6672 -0.550000 15.99940
6673 OM 6673 OM OM1 6673 -0.550000 15.99940
6674 OM 6674 OM OM1 6674 -0.550000 15.99940
6675 OM 6675 OM OM1 6675 -0.550000 15.99940
6676 OM 6676 OM OM1 6676 -0.550000 15.99940
6677 OM 6677 OM OM1 6677 -0.550000 15.99940
6678 OM 6678 OM OM1 6678 -0.550000 15.99940
6679 OM 6679 OM OM1 6679 -0.550000 15.99940
6680 OM 6680 OM OM1 6680 -0.550000 15.99940
6681 OM 6681 OM OM1 6681 -0.550000 15.99940
6682 OM 6682 OM OM1 6682 -0.550000 15.99940
6683 OM 6683 OM OM1 6683 -0.550000 15.99940
6684 OM 6684 OM OM1 6684 -0.550000 15.99940
6685 OM 6685 OM OM1 6685 -0.550000 15.99940
6686 OM 6686 OM OM1 6686 -0.550000 15.99940
6687 OM 6687 OM OM1 6687 -0.550000 15.99940
6688 OM 6688 OM OM1 6688 -0.550000 15.99940
6689 OM 6689 OM OM1 6689 -0.550000 15.99940
6690 OM 6690 OM OM1 6690 -0.550000 15.99940
6691 OM 6691 OM OM1 6691 -0.550000 15.99940
6692 OM 6692 OM OM1 6692 -0.550000 15.99940
6693 OM 6693 OM OM1 6693 -0.550000 15.99940
6694 OM 6694 OM OM1 6694 -0.550000 15.99940
6695 OM 6695 OM OM1 6695 -0.550000 15.99940
6696 OM 6696 OM OM1 6696 -0.550000 15.99940
6697 OM 6697 OM OM1 6697 -0.550000 15.99940
6698 OM 6698 OM OM1 6698 -0.550000 15.99940
6699 OM 6699 OM OM1 6699 -0.550000 15.99940
6700 OM 6700 OM OM1 6700 -0.550000 15.99940
6701 OM 6701 OM OM1 6701 -0.550000 15.99940
6702 OM 6702 OM OM1 6702 -0.550000 15.99940
6703 OM 6703 OM OM1 6703 -0.550000 15.99940
6704 OM 6704 OM OM1 6704 -0.550000 15.99940
6705 OM 6705 OM OM1 6705 -0.550000 15.99940
6706 OM 6706 OM OM1 6706 -0.550000 15.99940
6707 OM 6707 OM OM1 6707 -0.550000 15.99940
6708 OM 6708 OM OM1 6708 -0.550000 15.99940
6709 OM 6709 OM OM1 6709 -0.550000 15.99940
6710 OM 6710 OM OM1 6710 -0.550000 15.99940
6711 OM 6711 OM OM1 6711 -0.550000 15.99940
6712 OM 6712 OM OM1 6712 -0.550000 15.99940
6713 OM 6713 OM OM1 6713 -0.550000 15.99940
6714 OM 6714 OM OM1 6714 -0.550000 15.99940
6715 OM 6715 OM OM1 6715 -0.550000 15.99940
6716 OM 6716 OM OM1 6716 -0.550000 15.99940
6717 OM 6717 OM OM1 6717 -0.550000 15.99940
6718 OM 6718 OM OM1 6718 -0.550000 15.99940
6719 OM 6719 OM OM1 6719 -0.550000 15.99940
6720 OM 6720 OM OM1 6720 -0.550000 15.99940
6721 OM 6721 OM OM1 6721 -0.550000 15.99940
6722 OM 6722 OM OM1 6722 -0.550000 15.99940
6723 OM 6723 OM OM1 6723 -0.550000 15.99940
6724 OM 6724 OM OM1 6724 -0.550000 15.99940
6725 OM 6725 OM OM1 6725 -0.550000 15.99940
6726 OM 6726 OM OM1 6726 -0.550000 15.99940
6727 OM 6727 OM OM1 6727 -0.550000 15.99940
6728 OM 6728 OM OM1 6728 -0.550000 15.99940
6729 OM 6729 OM OM1 6729 -0.550000 15.99940
6730 OM 6730 OM OM1 6730 -0.550000 15.99940
6731 OM 6731 OM OM1 6731 -0.550000 15.99940
6732 OM 6732 OM OM1 6732 -0.550000 15.99940
6733 OM 6733 OM OM1 6733 -0.550000 15.99940
6734 OM 6734 OM OM1 6734 -0.550000 15.99940
6735 OM 6735 OM OM1 6735 -0.550000 15.99940
6736 OM 6736 OM OM1 6736 -0.550000 15.99940
6737 OM 6737 OM OM1 6737 -0.550000 15.99940
6738 OM 6738 OM OM1 6738 -0.550000 15.99940
6739 OM 6739 OM OM1 6739 -0.550000 15.99940
6740 OM 6740 OM OM1 6740 -0.550000 15.99940
6741 OM 6741 OM OM1 6741 -0.550000 15.99940
6742 OM 6742 OM OM1 6742 -0.550000 15.99940
6743 OM 6743 OM OM1 6743 -0.550000 15.99940
6744 OM 6744 OM OM1 6744 -0.550000 15.99940
6745 OM 6745 OM OM1 6745 -0.550000 15.99940
6746 OM 6746 OM OM1 6746 -0.550000 15.99940
6747 OM 6747 OM OM1 6747 -0.550000 15.99940
6748 OM 6748 OM OM1 6748 -0.550000 15.99940
6749 OM 6749 OM OM1 6749 -0.550000 15.99940
6750 OM 6750 OM OM1 6750 -0.550000 15.99940
6751 OM 6751 OM OM1 6751 -0.550000 15.99940
6752 OM 6752 OM OM1 6752 -0.550000 15.99940
6753 OM 6753 OM OM1 6753 -0.550000 15.99940
6754 OM 6754 OM OM1 6754 -0.550000 15.99940
6755 OM 6755 OM OM1 6755 -0.550000 15.99940
6756 OM 6756 OM OM1 6756 -0.550000 15.99940
6757 OM 6757 OM OM1 6757 -0.550000 15.99940
6758 OM 6758 OM OM1 6758 -0.550000 15.99940
6759 OM 6759 OM OM1 6759 -0.550000 15.99940
6760 OM 6760 OM OM1 6760 -0.550000 15.99940
6761 OM 6761 OM OM1 6761 -0.550000 15.99940
6762 OM 6762 OM OM1 6762 -0.550000 15.99940
6763 OM 6763 OM OM1 6763 -0.550000 15.99940
6764 OM 6764 OM OM1 6764 -0.550000 15.99940
6765 OM 6765 OM OM1 6765 -0.550000 15.99940
6766 OM 6766 OM OM1 6766 -0.550000 15.99940
6767 OM 6767 OM OM1 6767 -0.550000 15.99940
6768 OM 6768 OM OM1 6768 -0.550000 15.99940
6769 OM 6769 OM OM1 6769 -0.550000 15.99940
6770 OM 6770 OM OM1 6770 -0.550000 15.99940
6771 OM 6771 OM OM1 6771 -0.550000 15.99940
6772 OM 6772 OM OM1 6772 -0.550000 15.99940
6773 OM 6773 OM OM1 6773 -0.550000 15.99940
6774 OM 6774 OM OM1 6774 -0.550000 15.99940
6775 OM 6775 OM OM1 6775 -0.550000 15.99940
6776 OM 6776 OM OM1 6776 -0.550000 15.99940
6777 OM 6777 OM OM1 6777 -0.550000 15.99940
6778 OM 6778 OM OM1 6778 -0.550000 15.99940
6779 OM 6779 OM OM1 6779 -0.550000 15.99940
6780 OM 6780 OM OM1 6780 -0.550000 15.99940
6781 OM 6781 OM OM1 6781 -0.550000 15.99940
6782 OM 6782 OM OM1 6782 -0.550000 15.99940
6783 OM 6783 OM OM1 6783 -0.550000 15.99940
6784 OM 6784 OM OM1 6784 -0.550000 15.99940
6785 OM 6785 OM OM1 6785 -0.550000 15.99940
6786 OM 6786 OM OM1 6786 -0.550000 15.99940
6787 OM 6787 OM OM1 6787 -0.550000 15.99940
6788 OM 6788 OM OM1 6788 -0.550000 15.99940
6789 OM 6789 OM OM1 6789 -0.550000 15.99940
6790 OM 6790 OM OM1 6790 -0.550000 15.99940
6791 OM 6791 OM OM1 6791 -0.550000 15.99940
6792 OM 6792 OM OM1 6792 -0.550000 15.99940
6793 OM 6793 OM OM1 6793 -0.550000 15.99940
6794 OM 6794 OM OM1 6794 -0.550000 15.99940
6795 OM 6795 OM OM1 6795 -0.550000 15.99940
6796 OM 6796 OM OM1 6796 -0.550000 15.99940
6797 OM 6797 OM OM1 6797 -0.550000 15.99940
6798 OM 6798 OM OM1 6798 -0.550000 15.99940
6799 OM 6799 OM OM1 6799 -0.550000 15.99940
6800 OM 6800 OM OM1 6800 -0.550000 15.99940
6801 OM 6801 OM OM1 6801 -0.550000 15.99940
6802 OM 6802 OM OM1 6802 -0.550000 15.99940
6803 OM 6803 OM OM1 6803 -0.550000 15.99940
6804 OM 6804 OM OM1 6804 -0.550000 15.99940
6805 OM 6805 OM OM1 6805 -0.550000 15.99940
6806 OM 6806 OM OM1 6806 -0.550000 15.99940
6807 OM 6807 OM OM1 6807 -0.550000 15.99940
6808 OM 6808 OM OM1 6808 -0.550000 15.99940
6809 OM 6809 OM OM1 6809 -0.550000 15.99940
6810 OM 6810 OM OM1 6810 -0.550000 15.99940
6811 OM 6811 OM OM1 6811 -0.550000 15.99940
6812 OM 6812 OM OM1 6812 -0.550000 15.99940
6813 OM 6813 OM OM1 6813 -0.550000 15.99940
6814 OM 6814 OM OM1 6814 -0.550000 15.99940
6815 OM 6815 OM OM1 6815 -0.550000 15.99940
6816 OM 6816 OM OM1 6816 -0.550000 15.99940
6817 OM 6817 OM OM1 6817 -0.550000 15.99940
6818 OM 6818 OM OM1 6818 -0.550000 15.99940
6819 OM 6819 OM OM1 6819 -0.550000 15.99940
6820 OM 6820 OM OM1 6820 -0.550000 15.99940
6821 OM 6821 OM OM1 6821 -0.550000 15.99940
6822 OM 6822 OM OM1 6822 -0.550000 15.99940
6823 OM 6823 OM OM1 6823 -0.550000 15.99940
6824 OM 6824 OM OM1 6824 -0.550000 15.99940
6825 OM 6825 OM OM1 6825 -0.550000 15.99940
6826 OM 6826 OM OM1 6826 -0.550000 15.99940
6827 OM 6827 OM OM1 6827 -0.550000 15.99940
6828 OM 6828 OM OM1 6828 -0.550000 15.99940
6829 OM 6829 OM OM1 6829 -0.550000 15.99940
6830 OM 6830 OM OM1 6830 -0.550000 15.99940
6831 OM 6831 OM OM1 6831 -0.550000 15.99940
6832 OM 6832 OM OM1 6832 -0.550000 15.99940
6833 OM 6833 OM OM1 6833 -0.550000 15.99940
6834 OM 6834 OM OM1 6834 -0.550000 15.99940
6835 OM 6835 OM OM1 6835 -0.550000 15.99940
6836 OM 6836 OM OM1 6836 -0.550000 15.99940
6837 OM 6837 OM OM1 6837 -0.550000 15.99940
6838 OM 6838 OM OM1 6838 -0.550000 15.99940
6839 OM 6839 OM OM1 6839 -0.550000 15.99940
6840 OM 6840 OM OM1 6840 -0.550000 15.99940
6841 OM 6841 OM OM1 6841 -0.550000 15.99940
6842 OM 6842 OM OM1 6842 -0.550000 15.99940
6843 OM 6843 OM OM1 6843 -0.550000 15.99940
6844 OM 6844 OM OM1 6844 -0.550000 15.99940
6845 OM 6845 OM OM1 6845 -0.550000 15.99940
6846 OM 6846 OM OM1 6846 -0.550000 15.99940
6847 OM 6847 OM OM1 6847 -0.550000 15.99940
6848 OM 6848 OM OM1 6848 -0.550000 15.99940
6849 OM 6849 OM OM1 6849 -0.550000 15.99940
6850 OM 6850 OM OM1 6850 -0.550000 15.99940
6851 OM 6851 OM OM1 6851 -0.550000 15.99940
6852 OM 6852 OM OM1 6852 -0.550000 15.99940
6853 OM 6853 OM OM1 6853 -0.550000 15.99940
6854 OM 6854 OM OM1 6854 -0.550000 15.99940
6855 OM 6855 OM OM1 6855 -0.550000 15.99940
6856 OM 6856 OM OM1 6856 -0.550000 15.99940
6857 OM 6857 OM OM1 6857 -0.550000 15.99940
6858 OM 6858 OM OM1 6858 -0.550000 15.99940
6859 OM 6859 OM OM1 6859 -0.550000 15.99940
6860 OM 6860 OM OM1 6860 -0.550000 15.99940
6861 OM 6861 OM OM1 6861 -0.550000 15.99940
6862 OM 6862 OM OM1 6862 -0.550000 15.99940
6863 OM 6863 OM OM1 6863 -0.550000 15.99940
6864 OM 6864 OM OM1 6864 -0.550000 15.99940
6865 OM 6865 OM OM1 6865 -0.550000 15.99940
6866 OM 6866 OM OM1 6866 -0.550000 15.99940
6867 OM 6867 OM OM1 6867 -0.550000 15.99940
6868 OM 6868 OM OM1 6868 -0.550000 15.99940
6869 OM 6869 OM OM1 6869 -0.550000 15.99940
6870 OM 6870 OM OM1 6870 -0.550000 15.99940
6871 OM 6871 OM OM1 6871 -0.550000 15.99940
6872 OM 6872 OM OM1 6872 -0.550000 15.99940
6873 OM 6873 OM OM1 6873 -0.550000 15.99940
6874 OM 6874 OM OM1 6874 -0.550000 15.99940
6875 OM 6875 OM OM1 6875 -0.550000 15.99940
6876 OM 6876 OM OM1 6876 -0.550000 15.99940
6877 OM 6877 OM OM1 6877 -0.550000 15.99940
6878 OM 6878 OM OM1 6878 -0.550000 15.99940
6879 OM 6879 OM OM1 6879 -0.550000 15.99940
6880 OM 6880 OM OM1 6880 -0.550000 15.99940
6881 OM 6881 OM OM1 6881 -0.550000 15.99940
6882 OM 6882 OM OM1 6882 -0.550000 15.99940
6883 OM 6883 OM OM1 6883 -0.550000 15.99940
6884 OM 6884 OM OM1 6884 -0.550000 15.99940
6885 OM 6885 OM OM1 6885 -0.550000 15.99940
6886 OM 6886 OM OM1 6886 -0.550000 15.99940
6887 OM 6887 OM OM1 6887 -0.550000 15.99940
6888 OM 6888 OM OM1 6888 -0.550000 15.99940
6889 OM 6889 OM OM1 6889 -0.550000 15.99940
6890 OM 6890 OM OM1 6890 -0.550000 15.99940
6891 OM 6891 OM OM1 6891 -0.550000 15.99940
6892 OM 6892 OM OM1 6892 -0.550000 15.99940
6893 OM 6893 OM OM1 6893 -0.550000 15.99940
6894 OM 6894 OM OM1 6894 -0.550000 15.99940
6895 OM 6895 OM OM1 6895 -0.550000 15.99940
6896 OM 6896 OM OM1 6896 -0.550000 15.99940
6897 OM 6897 OM OM1 6897 -0.550000 15.99940
6898 OM 6898 OM OM1 6898 -0.550000 15.99940
6899 OM 6899 OM OM1 6899 -0.550000 15.99940
6900 OM 6900 OM OM1 6900 -0.550000 15.99940
6901 OM 6901 OM OM1 6901 -0.550000 15.99940
6902 OM 6902 OM OM1 6902 -0.550000 15.99940
6903 OM 6903 OM OM1 6903 -0.550000 15.99940
6904 OM 6904 OM OM1 6904 -0.550000 15.99940
6905 OM 6905 OM OM1 6905 -0.550000 15.99940
6906 OM 6906 OM OM1 6906 -0.550000 15.99940
6907 OM 6907 OM OM1 6907 -0.550000 15.99940
6908 OM 6908 OM OM1 6908 -0.550000 15.99940
6909 OM 6909 OM OM1 6909 -0.550000 15.99940
6910 OM 6910 OM OM1 6910 -0.550000 15.99940
6911 OM 6911 OM OM1 6911 -0.550000 15.99940
6912 OM 6912 OM OM1 6912 -0.550000 15.99940
6913 OM 6913 OM OM1 6913 -0.550000 15.99940
6914 OM 6914 OM OM1 6914 -0.550000 15.99940
6915 OM 6915 OM OM1 6915 -0.550000 15.99940
6916 OM 6916 OM OM1 6916 -0.550000 15.99940
6917 OM 6917 OM OM1 6917 -0.550000 15.99940
6918 OM 6918 OM OM1 6918 -0.550000 15.99940
6919 OM 6919 OM OM1 6919 -0.550000 15.99940
6920 OM 6920 OM OM1 6920 -0.550000 15.99940
6921 OM 6921 OM OM1 6921 -0.550000 15.99940
6922 OM 6922 OM OM1 6922 -0.550000 15.99940
6923 OM 6923 OM OM1 6923 -0.550000 15.99940
6924 OM 6924 OM OM1 6924 -0.550000 15.99940
6925 OM 6925 OM OM1 6925 -0.550000 15.99940
6926 OM 6926 OM OM1 6926 -0.550000 15.99940
6927 OM 6927 OM OM1 6927 -0.550000 15.99940
6928 OM 6928 OM OM1 6928 -0.550000 15.99940
6929 OM 6929 OM OM1 6929 -0.550000 15.99940
6930 OM 6930 OM OM1 6930 -0.550000 15.99940
6931 OM 6931 OM OM1 6931 -0.550000 15.99940
6932 OM 6932 OM OM1 6932 -0.550000 15.99940
6933 OM 6933 OM OM1 6933 -0.550000 15.99940
6934 OM 6934 OM OM1 6934 -0.550000 15.99940
6935 OM 6935 OM OM1 6935 -0.550000 15.99940
6936 OM 6936 OM OM1 6936 -0.550000 15.99940
6937 OM 6937 OM OM1 6937 -0.550000 15.99940
6938 OM 6938 OM OM1 6938 -0.550000 15.99940
6939 OM 6939 OM OM1 6939 -0.550000 15.99940
6940 OM 6940 OM OM1 6940 -0.550000 15.99940
6941 OM 6941 OM OM1 6941 -0.550000 15.99940
6942 OM 6942 OM OM1 6942 -0.550000 15.99940
6943 OM 6943 OM OM1 6943 -0.550000 15.99940
6944 OM 6944 OM OM1 6944 -0.550000 15.99940
6945 OM 6945 OM OM1 6945 -0.550000 15.99940
6946 OM 6946 OM OM1 6946 -0.550000 15.99940
6947 OM 6947 OM OM1 6947 -0.550000 15.99940
6948 OM 6948 OM OM1 6948 -0.550000 15.99940
6949 OM 6949 OM OM1 6949 -0.550000 15.99940
6950 OM 6950 OM OM1 6950 -0.550000 15.99940
6951 OM 6951 OM OM1 6951 -0.550000 15.99940
6952 OM 6952 OM OM1 6952 -0.550000 15.99940
6953 OM 6953 OM OM1 6953 -0.550000 15.99940
6954 OM 6954 OM OM1 6954 -0.550000 15.99940
6955 OM 6955 OM OM1 6955 -0.550000 15.99940
6956 OM 6956 OM OM1 6956 -0.550000 15.99940
6957 OM 6957 OM OM1 6957 -0.550000 15.99940
6958 OM 6958 OM OM1 6958 -0.550000 15.99940
6959 OM 6959 OM OM1 6959 -0.550000 15.99940
6960 OM 6960 OM OM1 6960 -0.550000 15.99940
6961 OM 6961 OM OM1 6961 -0.550000 15.99940
6962 OM 6962 OM OM1 6962 -0.550000 15.99940
6963 OM 6963 OM OM1 6963 -0.550000 15.99940
6964 OM 6964 OM OM1 6964 -0.550000 15.99940
6965 OM 6965 OM OM1 6965 -0.550000 15.99940
6966 OM 6966 OM OM1 6966 -0.550000 15.99940
6967 OM 6967 OM OM1 6967 -0.550000 15.99940
6968 OM 6968 OM OM1 6968 -0.550000 15.99940
6969 OM 6969 OM OM1 6969 -0.550000 15.99940
6970 OM 6970 OM OM1 6970 -0.550000 15.99940
6971 OM 6971 OM OM1 6971 -0.550000 15.99940
6972 OM 6972 OM OM1 6972 -0.550000 15.99940
6973 OM 6973 OM OM1 6973 -0.550000 15.99940
6974 OM 6974 OM OM1 6974 -0.550000 15.99940
6975 OM 6975 OM OM1 6975 -0.550000 15.99940
6976 OM 6976 OM OM1 6976 -0.550000 15.99940
6977 OM 6977 OM OM1 6977 -0.550000 15.99940
6978 OM 6978 OM OM1 6978 -0.550000 15.99940
6979 OM 6979 OM OM1 6979 -0.550000 15.99940
6980 OM 6980 OM OM1 6980 -0.550000 15.99940
6981 OM 6981 OM OM1 6981 -0.550000 15.99940
6982 OM 6982 OM OM1 6982 -0.550000 15.99940
6983 OM 6983 OM OM1 6983 -0.550000 15.99940
6984 OM 6984 OM OM1 6984 -0.550000 15.99940
6985 OM 6985 OM OM1 6985 -0.550000 15.99940
6986 OM 6986 OM OM1 6986 -0.550000 15.99940
6987 OM 6987 OM OM1 6987 -0.550000 15.99940
6988 OM 6988 OM OM1 6988 -0.550000 15.99940
6989 OM 6989 OM OM1 6989 -0.550000 15.99940
6990 OM 6990 OM OM1 6990 -0.550000 15.99940
6991 OM 6991 OM OM1 6991 -0.550000 15.99940
6992 OM 6992 OM OM1 6992 -0.550000 15.99940
6993 OM 6993 OM OM1 6993 -0.550000 15.99940
6994 OM 6994 OM OM1 6994 -0.550000 15.99940
6995 OM 6995 OM OM1 6995 -0.550000 15.99940
6996 OM 6996 OM OM1 6996 -0.550000 15.99940
6997 OM 6997 OM OM1 6997 -0.550000 15.99940
6998 OM 6998 OM OM1 6998 -0.550000 15.99940
6999 OM 6999 OM OM1 6999 -0.550000 15.99940
7000 OM 7000 OM OM1 7000 -0.550000 15.99940
7001 OM 7001 OM OM1 7001 -0.550000 15.99940
7002 OM 7002 OM OM1 7002 -0.550000 15.99940
7003 OM 7003 OM OM1 7003 -0.550000 15.99940
7004 OM 7004 OM OM1 7004 -0.550000 15.99940
7005 OM 7005 OM OM1 7005 -0.550000 15.99940
7006 OM 7006 OM OM1 7006 -0.550000 15.99940
7007 OM 7007 OM OM1 7007 -0.550000 15.99940
7008 OM 7008 OM OM1 7008 -0.550000 15.99940
7009 OM 7009 OM OM1 7009 -0.550000 15.99940
7010 OM 7010 OM OM1 7010 -0.550000 15.99940
7011 OM 7011 OM OM1 7011 -0.550000 15.99940
7012 OM 7012 OM OM1 7012 -0.550000 15.99940
7013 OM 7013 OM OM1 7013 -0.550000 15.99940
7014 OM 7014 OM OM1 7014 -0.550000 15.99940
7015 OM 7015 OM OM1 7015 -0.550000 15.99940
7016 OM 7016 OM OM1 7016 -0.550000 15.99940
7017 OM 7017 OM OM1 7017 -0.550000 15.99940
7018 OM 7018 OM OM1 7018 -0.550000 15.99940
7019 OM 7019 OM OM1 7019 -0.550000 15.99940
7020 OM 7020 OM OM1 7020 -0.550000 15.99940
7021 OM 7021 OM OM1 7021 -0.550000 15.99940
7022 OM 7022 OM OM1 7022 -0.550000 15.99940
7023 OM 7023 OM OM1 7023 -0.550000 15.99940
7024 OM 7024 OM OM1 7024 -0.550000 15.99940
7025 OM 7025 OM OM1 7025 -0.550000 15.99940
7026 OM 7026 OM OM1 7026 -0.550000 15.99940
7027 OM 7027 OM OM1 7027 -0.550000 15.99940
7028 OM 7028 OM OM1 7028 -0.550000 15.99940
7029 OM 7029 OM OM1 7029 -0.550000 15.99940
7030 OM 7030 OM OM1 7030 -0.550000 15.99940
7031 OM 7031 OM OM1 7031 -0.550000 15.99940
7032 OM 7032 OM OM1 7032 -0.550000 15.99940
7033 OM 7033 OM OM1 7033 -0.550000 15.99940
7034 OM 7034 OM OM1 7034 -0.550000 15.99940
7035 OM 7035 OM OM1 7035 -0.550000 15.99940
7036 OM 7036 OM OM1 7036 -0.550000 15.99940
7037 OM 7037 OM OM1 7037 -0.550000 15.99940
7038 OM 7038 OM OM1 7038 -0.550000 15.99940
7039 OM 7039 OM OM1 7039 -0.550000 15.99940
7040 OM 7040 OM OM1 7040 -0.550000 15.99940
7041 OM 7041 OM OM1 7041 -0.550000 15.99940
7042 OM 7042 OM OM1 7042 -0.550000 15.99940
7043 OM 7043 OM OM1 7043 -0.550000 15.99940
7044 OM 7044 OM OM1 7044 -0.550000 15.99940
7045 OM 7045 OM OM1 7045 -0.550000 15.99940
7046 OM 7046 OM OM1 7046 -0.550000 15.99940
7047 OM 7047 OM OM1 7047 -0.550000 15.99940
7048 OM 7048 OM OM1 7048 -0.550000 15.99940
7049 OM 7049 OM OM1 7049 -0.550000 15.99940
7050 OM 7050 OM OM1 7050 -0.550000 15.99940
7051 OM 7051 OM OM1 7051 -0.550000 15.99940
7052 OM 7052 OM OM1 7052 -0.550000 15.99940
7053 OM 7053 OM OM1 7053 -0.550000 15.99940
7054 OM 7054 OM OM1 7054 -0.550000 15.99940
7055 OM 7055 OM OM1 7055 -0.550000 15.99940
7056 OM 7056 OM OM1 7056 -0.550000 15.99940
7057 OM 7057 OM OM1 7057 -0.550000 15.99940
7058 OM 7058 OM OM1 7058 -0.550000 15.99940
7059 OM 7059 OM OM1 7059 -0.550000 15.99940
7060 OM 7060 OM OM1 7060 -0.550000 15.99940
7061 OM 7061 OM OM1 7061 -0.550000 15.99940
7062 OM 7062 OM OM1 7062 -0.550000 15.99940
7063 OM 7063 OM OM1 7063 -0.550000 15.99940
7064 OM 7064 OM OM1 7064 -0.550000 15.99940
7065 OM 7065 OM OM1 7065 -0.550000 15.99940
7066 OM 7066 OM OM1 7066 -0.550000 15.99940
7067 OM 7067 OM OM1 7067 -0.550000 15.99940
7068 OM 7068 OM OM1 7068 -0.550000 15.99940
7069 OM 7069 OM OM1 7069 -0.550000 15.99940
7070 OM 7070 OM OM1 7070 -0.550000 15.99940
7071 OM 7071 OM OM1 7071 -0.550000 15.99940
7072 OM 7072 OM OM1 7072 -0.550000 15.99940
7073 OM 7073 OM OM1 7073 -0.550000 15.99940
7074 OM 7074 OM OM1 7074 -0.550000 15.99940
7075 OM 7075 OM OM1 7075 -0.550000 15.99940
7076 OM 7076 OM OM1 7076 -0.550000 15.99940
7077 OM 7077 OM OM1 7077 -0.550000 15.99940
7078 OM 7078 OM OM1 7078 -0.550000 15.99940
7079 OM 7079 OM OM1 7079 -0.550000 15.99940
7080 OM 7080 OM OM1 7080 -0.550000 15.99940
7081 OM 7081 OM OM1 7081 -0.550000 15.99940
7082 OM 7082 OM OM1 7082 -0.550000 15.99940
7083 OM 7083 OM OM1 7083 -0.550000 15.99940
7084 OM 7084 OM OM1 7084 -0.550000 15.99940
7085 OM 7085 OM OM1 7085 -0.550000 15.99940
7086 OM 7086 OM OM1 7086 -0.550000 15.99940
7087 OM 7087 OM OM1 7087 -0.550000 15.99940
7088 OM 7088 OM OM1 7088 -0.550000 15.99940
7089 OM 7089 OM OM1 7089 -0.550000 15.99940
7090 OM 7090 OM OM1 7090 -0.550000 15.99940
7091 OM 7091 OM OM1 7091 -0.550000 15.99940
7092 OM 7092 OM OM1 7092 -0.550000 15.99940
7093 OM 7093 OM OM1 7093 -0.550000 15.99940
7094 OM 7094 OM OM1 7094 -0.550000 15.99940
7095 OM 7095 OM OM1 7095 -0.550000 15.99940
7096 OM 7096 OM OM1 7096 -0.550000 15.99940
7097 OM 7097 OM OM1 7097 -0.550000 15.99940
7098 OM 7098 OM OM1 7098 -0.550000 15.99940
7099 OM 7099 OM OM1 7099 -0.550000 15.99940
7100 OM 7100 OM OM1 7100 -0.550000 15.99940
7101 OM 7101 OM OM1 7101 -0.550000 15.99940
7102 OM 7102 OM OM1 7102 -0.550000 15.99940
7103 OM 7103 OM OM1 7103 -0.550000 15.99940
7104 OM 7104 OM OM1 7104 -0.550000 15.99940
7105 OM 7105 OM OM1 7105 -0.550000 15.99940
7106 OM 7106 OM OM1 7106 -0.550000 15.99940
7107 OM 7107 OM OM1 7107 -0.550000 15.99940
7108 OM 7108 OM OM1 7108 -0.550000 15.99940
7109 OM 7109 OM OM1 7109 -0.550000 15.99940
7110 OM 7110 OM OM1 7110 -0.550000 15.99940
7111 OM 7111 OM OM1 7111 -0.550000 15.99940
7112 OM 7112 OM OM1 7112 -0.550000 15.99940
7113 OM 7113 OM OM1 7113 -0.550000 15.99940
7114 OM 7114 OM OM1 7114 -0.550000 15.99940
7115 OM 7115 OM OM1 7115 -0.550000 15.99940
7116 OM 7116 OM OM1 7116 -0.550000 15.99940
7117 OM 7117 OM OM1 7117 -0.550000 15.99940
7118 OM 7118 OM OM1 7118 -0.550000 15.99940
7119 OM 7119 OM OM1 7119 -0.550000 15.99940
7120 OM 7120 OM OM1 7120 -0.550000 15.99940
7121 OM 7121 OM OM1 7121 -0.550000 15.99940
7122 OM 7122 OM OM1 7122 -0.550000 15.99940
7123 OM 7123 OM OM1 7123 -0.550000 15.99940
7124 OM 7124 OM OM1 7124 -0.550000 15.99940
7125 OM 7125 OM OM1 7125 -0.550000 15.99940
7126 OM 7126 OM OM1 7126 -0.550000 15.99940
7127 OM 7127 OM OM1 7127 -0.550000 15.99940
7128 OM 7128 OM OM1 7128 -0.550000 15.99940
7129 OM 7129 OM OM1 7129 -0.550000 15.99940
7130 OM 7130 OM OM1 7130 -0.550000 15.99940
7131 OM 7131 OM OM1 7131 -0.550000 15.99940
7132 OM 7132 OM OM1 7132 -0.550000 15.99940
7133 OM 7133 OM OM1 7133 -0.550000 15.99940
7134 OM 7134 OM OM1 7134 -0.550000 15.99940
7135 OM 7135 OM OM1 7135 -0.550000 15.99940
7136 OM 7136 OM OM1 7136 -0.550000 15.99940
7137 OM 7137 OM OM1 7137 -0.550000 15.99940
7138 OM 7138 OM OM1 7138 -0.550000 15.99940
7139 OM 7139 OM OM1 7139 -0.550000 15.99940
7140 OM 7140 OM OM1 7140 -0.550000 15.99940
7141 OM 7141 OM OM1 7141 -0.550000 15.99940
7142 OM 7142 OM OM1 7142 -0.550000 15.99940
7143 OM 7143 OM OM1 7143 -0.550000 15.99940
7144 OM 7144 OM OM1 7144 -0.550000 15.99940
7145 OM 7145 OM OM1 7145 -0.550000 15.99940
7146 OM 7146 OM OM1 7146 -0.550000 15.99940
7147 OM 7147 OM OM1 7147 -0.550000 15.99940
7148 OM 7148 OM OM1 7148 -0.550000 15.99940
7149 OM 7149 OM OM1 7149 -0.550000 15.99940
7150 OM 7150 OM OM1 7150 -0.550000 15.99940
7151 OM 7151 OM OM1 7151 -0.550000 15.99940
7152 OM 7152 OM OM1 7152 -0.550000 15.99940
7153 OM 7153 OM OM1 7153 -0.550000 15.99940
7154 OM 7154 OM OM1 7154 -0.550000 15.99940
7155 OM 7155 OM OM1 7155 -0.550000 15.99940
7156 OM 7156 OM OM1 7156 -0.550000 15.99940
7157 OM 7157 OM OM1 7157 -0.550000 15.99940
7158 OM 7158 OM OM1 7158 -0.550000 15.99940
7159 OM 7159 OM OM1 7159 -0.550000 15.99940
7160 OM 7160 OM OM1 7160 -0.550000 15.99940
7161 OM 7161 OM OM1 7161 -0.550000 15.99940
7162 OM 7162 OM OM1 7162 -0.550000 15.99940
7163 OM 7163 OM OM1 7163 -0.550000 15.99940
7164 OM 7164 OM OM1 7164 -0.550000 15.99940
7165 OM 7165 OM OM1 7165 -0.550000 15.99940
7166 OM 7166 OM OM1 7166 -0.550000 15.99940
7167 OM 7167 OM OM1 7167 -0.550000 15.99940
7168 OM 7168 OM OM1 7168 -0.550000 15.99940
7169 OM 7169 OM OM1 7169 -0.550000 15.99940
7170 OM 7170 OM OM1 7170 -0.550000 15.99940
7171 OM 7171 OM OM1 7171 -0.550000 15.99940
7172 OM 7172 OM OM1 7172 -0.550000 15.99940
7173 OM 7173 OM OM1 7173 -0.550000 15.99940
7174 OM 7174 OM OM1 7174 -0.550000 15.99940
7175 OM 7175 OM OM1 7175 -0.550000 15.99940
7176 OM 7176 OM OM1 7176 -0.550000 15.99940
7177 OM 7177 OM OM1 7177 -0.550000 15.99940
7178 OM 7178 OM OM1 7178 -0.550000 15.99940
7179 OM 7179 OM OM1 7179 -0.550000 15.99940
7180 OM 7180 OM OM1 7180 -0.550000 15.99940
7181 OM 7181 OM OM1 7181 -0.550000 15.99940
7182 OM 7182 OM OM1 7182 -0.550000 15.99940
7183 OM 7183 OM OM1 7183 -0.550000 15.99940
7184 OM 7184 OM OM1 7184 -0.550000 15.99940
7185 OM 7185 OM OM1 7185 -0.550000 15.99940
7186 OM 7186 OM OM1 7186 -0.550000 15.99940
7187 OM 7187 OM OM1 7187 -0.550000 15.99940
7188 OM 7188 OM OM1 7188 -0.550000 15.99940
7189 OM 7189 OM OM1 7189 -0.550000 15.99940
7190 OM 7190 OM OM1 7190 -0.550000 15.99940
7191 OM 7191 OM OM1 7191 -0.550000 15.99940
7192 OM 7192 OM OM1 7192 -0.550000 15.99940
7193 OM 7193 OM OM1 7193 -0.550000 15.99940
7194 OM 7194 OM OM1 7194 -0.550000 15.99940
7195 OM 7195 OM OM1 7195 -0.550000 15.99940
7196 OM 7196 OM OM1 7196 -0.550000 15.99940
7197 OM 7197 OM OM1 7197 -0.550000 15.99940
7198 OM 7198 OM OM1 7198 -0.550000 15.99940
7199 OM 7199 OM OM1 7199 -0.550000 15.99940
7200 OM 7200 OM OM1 7200 -0.550000 15.99940
7201 OM 7201 OM OM1 7201 -0.550000 15.99940
7202 OM 7202 OM OM1 7202 -0.550000 15.99940
7203 OM 7203 OM OM1 7203 -0.550000 15.99940
7204 OM 7204 OM OM1 7204 -0.550000 15.99940
7205 OM 7205 OM OM1 7205 -0.550000 15.99940
7206 OM 7206 OM OM1 7206 -0.550000 15.99940
7207 OM 7207 OM OM1 7207 -0.550000 15.99940
7208 OM 7208 OM OM1 7208 -0.550000 15.99940
7209 OM 7209 OM OM1 7209 -0.550000 15.99940
7210 OM 7210 OM OM1 7210 -0.550000 15.99940
7211 OM 7211 OM OM1 7211 -0.550000 15.99940
7212 OM 7212 OM OM1 7212 -0.550000 15.99940
7213 OM 7213 OM OM1 7213 -0.550000 15.99940
7214 OM 7214 OM OM1 7214 -0.550000 15.99940
7215 OM 7215 OM OM1 7215 -0.550000 15.99940
7216 OM 7216 OM OM1 7216 -0.550000 15.99940
7217 OM 7217 OM OM1 7217 -0.550000 15.99940
7218 OM 7218 OM OM1 7218 -0.550000 15.99940
7219 OM 7219 OM OM1 7219 -0.550000 15.99940
7220 OM 7220 OM OM1 7220 -0.550000 15.99940
7221 OM 7221 OM OM1 7221 -0.550000 15.99940
7222 OM 7222 OM OM1 7222 -0.550000 15.99940
7223 OM 7223 OM OM1 7223 -0.550000 15.99940
7224 OM 7224 OM OM1 7224 -0.550000 15.99940
7225 OM 7225 OM OM1 7225 -0.550000 15.99940
7226 OM 7226 OM OM1 7226 -0.550000 15.99940
7227 OM 7227 OM OM1 7227 -0.550000 15.99940
7228 OM 7228 OM OM1 7228 -0.550000 15.99940
7229 OM 7229 OM OM1 7229 -0.550000 15.99940
7230 OM 7230 OM OM1 7230 -0.550000 15.99940
7231 OM 7231 OM OM1 7231 -0.550000 15.99940
7232 OM 7232 OM OM1 7232 -0.550000 15.99940
7233 OM 7233 OM OM1 7233 -0.550000 15.99940
7234 OM 7234 OM OM1 7234 -0.550000 15.99940
7235 OM 7235 OM OM1 7235 -0.550000 15.99940
7236 OM 7236 OM OM1 7236 -0.550000 15.99940
7237 OM 7237 OM OM1 7237 -0.550000 15.99940
7238 OM 7238 OM OM1 7238 -0.550000 15.99940
7239 OM 7239 OM OM1 7239 -0.550000 15.99940
7240 OM 7240 OM OM1 7240 -0.550000 15.99940
7241 OM 7241 OM OM1 7241 -0.550000 15.99940
7242 OM 7242 OM OM1 7242 -0.550000 15.99940
7243 OM 7243 OM OM1 7243 -0.550000 15.99940
7244 OM 7244 OM OM1 7244 -0.550000 15.99940
7245 OM 7245 OM OM1 7245 -0.550000 15.99940
7246 OM 7246 OM OM1 7246 -0.550000 15.99940
7247 OM 7247 OM OM1 7247 -0.550000 15.99940
7248 OM 7248 OM OM1 7248 -0.550000 15.99940
7249 OM 7249 OM OM1 7249 -0.550000 15.99940
7250 OM 7250 OM OM1 7250 -0.550000 15.99940
7251 OM 7251 OM OM1 7251 -0.550000 15.99940
7252 OM 7252 OM OM1 7252 -0.550000 15.99940
7253 OM 7253 OM OM1 7253 -0.550000 15.99940
7254 OM 7254 OM OM1 7254 -0.550000 15.99940
7255 OM 7255 OM OM1 7255 -0.550000 15.99940
7256 OM 7256 OM OM1 7256 -0.550000 15.99940
7257 OM 7257 OM OM1 7257 -0.550000 15.99940
7258 OM 7258 OM OM1 7258 -0.550000 15.99940
7259 OM 7259 OM OM1 7259 -0.550000 15.99940
7260 OM 7260 OM OM1 7260 -0.550000 15.99940
7261 OM 7261 OM OM1 7261 -0.550000 15.99940
7262 OM 7262 OM OM1 7262 -0.550000 15.99940
7263 OM 7263 OM OM1 7263 -0.550000 15.99940
7264 OM 7264 OM OM1 7264 -0.550000 15.99940
7265 OM 7265 OM OM1 7265 -0.550000 15.99940
7266 OM 7266 OM OM1 7266 -0.550000 15.99940
7267 OM 7267 OM OM1 7267 -0.550000 15.99940
7268 OM 7268 OM OM1 7268 -0.550000 15.99940
7269 OM 7269 OM OM1 7269 -0.550000 15.99940
7270 OM 7270 OM OM1 7270 -0.550000 15.99940
7271 OM 7271 OM OM1 7271 -0.550000 15.99940
7272 OM 7272 OM OM1 7272 -0.550000 15.99940
7273 OM 7273 OM OM1 7273 -0.550000 15.99940
7274 OM 7274 OM OM1 7274 -0.550000 15.99940
7275 OM 7275 OM OM1 7275 -0.550000 15.99940
7276 OM 7276 OM OM1 7276 -0.550000 15.99940
7277 OM 7277 OM OM1 7277 -0.550000 15.99940
7278 OM 7278 OM OM1 7278 -0.550000 15.99940
7279 OM 7279 OM OM1 7279 -0.550000 15.99940
7280 OM 7280 OM OM1 7280 -0.550000 15.99940
7281 OM 7281 OM OM1 7281 -0.550000 15.99940
7282 OM 7282 OM OM1 7282 -0.550000 15.99940
7283 OM 7283 OM OM1 7283 -0.550000 15.99940
7284 OM 7284 OM OM1 7284 -0.550000 15.99940
7285 OM 7285 OM OM1 7285 -0.550000 15.99940
7286 OM 7286 OM OM1 7286 -0.550000 15.99940
7287 OM 7287 OM OM1 7287 -0.550000 15.99940
7288 OM 7288 OM OM1 7288 -0.550000 15.99940
7289 OM 7289 OM OM1 7289 -0.550000 15.99940
7290 OM 7290 OM OM1 7290 -0.550000 15.99940
7291 OM 7291 OM OM1 7291 -0.550000 15.99940
7292 OM 7292 OM OM1 7292 -0.550000 15.99940
7293 OM 7293 OM OM1 7293 -0.550000 15.99940
7294 OM 7294 OM OM1 7294 -0.550000 15.99940
7295 OM 7295 OM OM1 7295 -0.550000 15.99940
7296 OM 7296 OM OM1 7296 -0.550000 15.99940
7297 OM 7297 OM OM1 7297 -0.550000 15.99940
7298 OM 7298 OM OM1 7298 -0.550000 15.99940
7299 OM 7299 OM OM1 7299 -0.550000 15.99940
7300 OM 7300 OM OM1 7300 -0.550000 15.99940
7301 OM 7301 OM OM1 7301 -0.550000 15.99940
7302 OM 7302 OM OM1 7302 -0.550000 15.99940
7303 OM 7303 OM OM1 7303 -0.550000 15.99940
7304 OM 7304 OM OM1 7304 -0.550000 15.99940
7305 OM 7305 OM OM1 7305 -0.550000 15.99940
7306 OM 7306 OM OM1 7306 -0.550000 15.99940
7307 OM 7307 OM OM1 7307 -0.550000 15.99940
7308 OM 7308 OM OM1 7308 -0.550000 15.99940
7309 OM 7309 OM OM1 7309 -0.550000 15.99940
7310 OM 7310 OM OM1 7310 -0.550000 15.99940
7311 OM 7311 OM OM1 7311 -0.550000 15.99940
7312 OM 7312 OM OM1 7312 -0.550000 15.99940
7313 OM 7313 OM OM1 7313 -0.550000 15.99940
7314 OM 7314 OM OM1 7314 -0.550000 15.99940
7315 OM 7315 OM OM1 7315 -0.550000 15.99940
7316 OM 7316 OM OM1 7316 -0.550000 15.99940
7317 OM 7317 OM OM1 7317 -0.550000 15.99940
7318 OM 7318 OM OM1 7318 -0.550000 15.99940
7319 OM 7319 OM OM1 7319 -0.550000 15.99940
7320 OM 7320 OM OM1 7320 -0.550000 15.99940
7321 OM 7321 OM OM1 7321 -0.550000 15.99940
7322 OM 7322 OM OM1 7322 -0.550000 15.99940
7323 OM 7323 OM OM1 7323 -0.550000 15.99940
7324 OM 7324 OM OM1 7324 -0.550000 15.99940
7325 OM 7325 OM OM1 7325 -0.550000 15.99940
7326 OM 7326 OM OM1 7326 -0.550000 15.99940
7327 OM 7327 OM OM1 7327 -0.550000 15.99940
7328 OM 7328 OM OM1 7328 -0.550000 15.99940
7329 OM 7329 OM OM1 7329 -0.550000 15.99940
7330 OM 7330 OM OM1 7330 -0.550000 15.99940
7331 OM 7331 OM OM1 7331 -0.550000 15.99940
7332 OM 7332 OM OM1 7332 -0.550000 15.99940
7333 OM 7333 OM OM1 7333 -0.550000 15.99940
7334 OM 7334 OM OM1 7334 -0.550000 15.99940
7335 OM 7335 OM OM1 7335 -0.550000 15.99940
7336 OM 7336 OM OM1 7336 -0.550000 15.99940
7337 OM 7337 OM OM1 7337 -0.550000 15.99940
7338 OM 7338 OM OM1 7338 -0.550000 15.99940
7339 OM 7339 OM OM1 7339 -0.550000 15.99940
7340 OM 7340 OM OM1 7340 -0.550000 15.99940
7341 OM 7341 OM OM1 7341 -0.550000 15.99940
7342 OM 7342 OM OM1 7342 -0.550000 15.99940
7343 OM 7343 OM OM1 7343 -0.550000 15.99940
7344 OM 7344 OM OM1 7344 -0.550000 15.99940
7345 OM 7345 OM OM1 7345 -0.550000 15.99940
7346 OM 7346 OM OM1 7346 -0.550000 15.99940
7347 OM 7347 OM OM1 7347 -0.550000 15.99940
7348 OM 7348 OM OM1 7348 -0.550000 15.99940
7349 OM 7349 OM OM1 7349 -0.550000 15.99940
7350 OM 7350 OM OM1 7350 -0.550000 15.99940
7351 OM 7351 OM OM1 7351 -0.550000 15.99940
7352 OM 7352 OM OM1 7352 -0.550000 15.99940
7353 OM 7353 OM OM1 7353 -0.550000 15.99940
7354 OM 7354 OM OM1 7354 -0.550000 15.99940
7355 OM 7355 OM OM1 7355 -0.550000 15.99940
7356 OM 7356 OM OM1 7356 -0.550000 15.99940
7357 OM 7357 OM OM1 7357 -0.550000 15.99940
7358 OM 7358 OM OM1 7358 -0.550000 15.99940
7359 OM 7359 OM OM1 7359 -0.550000 15.99940
7360 OM 7360 OM OM1 7360 -0.550000 15.99940
7361 OM 7361 OM OM1 7361 -0.550000 15.99940
7362 OM 7362 OM OM1 7362 -0.550000 15.99940
7363 OM 7363 OM OM1 7363 -0.550000 15.99940
7364 OM 7364 OM OM1 7364 -0.550000 15.99940
7365 OM 7365 OM OM1 7365 -0.550000 15.99940
7366 OM 7366 OM OM1 7366 -0.550000 15.99940
7367 OM 7367 OM OM1 7367 -0.550000 15.99940
7368 OM 7368 OM OM1 7368 -0.550000 15.99940
7369 OM 7369 OM OM1 7369 -0.550000 15.99940
7370 OM 7370 OM OM1 7370 -0.550000 15.99940
7371 OM 7371 OM OM1 7371 -0.550000 15.99940
7372 OM 7372 OM OM1 7372 -0.550000 15.99940
7373 OM 7373 OM OM1 7373 -0.550000 15.99940
7374 OM 7374 OM OM1 7374 -0.550000 15.99940
7375 OM 7375 OM OM1 7375 -0.550000 15.99940
7376 OM 7376 OM OM1 7376 -0.550000 15.99940
7377 OM 7377 OM OM1 7377 -0.550000 15.99940
7378 OM 7378 OM OM1 7378 -0.550000 15.99940
7379 OM 7379 OM OM1 7379 -0.550000 15.99940
7380 OM 7380 OM OM1 7380 -0.550000 15.99940
7381 OM 7381 OM OM1 7381 -0.550000 15.99940
7382 OM 7382 OM OM1 7382 -0.550000 15.99940
7383 OM 7383 OM OM1 7383 -0.550000 15.99940
7384 OM 7384 OM OM1 7384 -0.550000 15.99940
7385 OM 7385 OM OM1 7385 -0.550000 15.99940
7386 OM 7386 OM OM1 7386 -0.550000 15.99940
7387 OM 7387 OM OM1 7387 -0.550000 15.99940
7388 OM 7388 OM OM1 7388 -0.550000 15.99940
7389 OM 7389 OM OM1 7389 -0.550000 15.99940
7390 OM 7390 OM OM1 7390 -0.550000 15.99940
7391 OM 7391 OM OM1 7391 -0.550000 15.99940
7392 OM 7392 OM OM1 7392 -0.550000 15.99940
7393 OM 7393 OM OM1 7393 -0.550000 15.99940
7394 OM 7394 OM OM1 7394 -0.550000 15.99940
7395 OM 7395 OM OM1 7395 -0.550000 15.99940
7396 OM 7396 OM OM1 7396 -0.550000 15.99940
7397 OM 7397 OM OM1 7397 -0.550000 15.99940
7398 OM 7398 OM OM1 7398 -0.550000 15.99940
7399 OM 7399 OM OM1 7399 -0.550000 15.99940
7400 OM 7400 OM OM1 7400 -0.550000 15.99940
7401 OM 7401 OM OM1 7401 -0.550000 15.99940
7402 OM 7402 OM OM1 7402 -0.550000 15.99940
7403 OM 7403 OM OM1 7403 -0.550000 15.99940
7404 OM 7404 OM OM1 7404 -0.550000 15.99940
7405 OM 7405 OM OM1 7405 -0.550000 15.99940
7406 OM 7406 OM OM1 7406 -0.550000 15.99940
7407 OM 7407 OM OM1 7407 -0.550000 15.99940
7408 OM 7408 OM OM1 7408 -0.550000 15.99940
7409 OM 7409 OM OM1 7409 -0.550000 15.99940
7410 OM 7410 OM OM1 7410 -0.550000 15.99940
7411 OM 7411 OM OM1 7411 -0.550000 15.99940
7412 OM 7412 OM OM1 7412 -0.550000 15.99940
7413 OM 7413 OM OM1 7413 -0.550000 15.99940
7414 OM 7414 OM OM1 7414 -0.550000 15.99940
7415 OM 7415 OM OM1 7415 -0.550000 15.99940
7416 OM 7416 OM OM1 7416 -0.550000 15.99940
7417 OM 7417 OM OM1 7417 -0.550000 15.99940
7418 OM 7418 OM OM1 7418 -0.550000 15.99940
7419 OM 7419 OM OM1 7419 -0.550000 15.99940
7420 OM 7420 OM OM1 7420 -0.550000 15.99940
7421 OM 7421 OM OM1 7421 -0.550000 15.99940
7422 OM 7422 OM OM1 7422 -0.550000 15.99940
7423 OM 7423 OM OM1 7423 -0.550000 15.99940
7424 OM 7424 OM OM1 7424 -0.550000 15.99940
7425 OM 7425 OM OM1 7425 -0.550000 15.99940
7426 OM 7426 OM OM1 7426 -0.550000 15.99940
7427 OM 7427 OM OM1 7427 -0.550000 15.99940
7428 OM 7428 OM OM1 7428 -0.550000 15.99940
7429 OM 7429 OM OM1 7429 -0.550000 15.99940
7430 OM 7430 OM OM1 7430 -0.550000 15.99940
7431 OM 7431 OM OM1 7431 -0.550000 15.99940
7432 OM 7432 OM OM1 7432 -0.550000 15.99940
7433 OM 7433 OM OM1 7433 -0.550000 15.99940
7434 OM 7434 OM OM1 7434 -0.550000 15.99940
7435 OM 7435 OM OM1 7435 -0.550000 15.99940
7436 OM 7436 OM OM1 7436 -0.550000 15.99940
7437 OM 7437 OM OM1 7437 -0.550000 15.99940
7438 OM 7438 OM OM1 7438 -0.550000 15.99940
7439 OM 7439 OM OM1 7439 -0.550000 15.99940
7440 OM 7440 OM OM1 7440 -0.550000 15.99940
7441 OM 7441 OM OM1 7441 -0.550000 15.99940
7442 OM 7442 OM OM1 7442 -0.550000 15.99940
7443 OM 7443 OM OM1 7443 -0.550000 15.99940
7444 OM 7444 OM OM1 7444 -0.550000 15.99940
7445 OM 7445 OM OM1 7445 -0.550000 15.99940
7446 OM 7446 OM OM1 7446 -0.550000 15.99940
7447 OM 7447 OM OM1 7447 -0.550000 15.99940
7448 OM 7448 OM OM1 7448 -0.550000 15.99940
7449 OM 7449 OM OM1 7449 -0.550000 15.99940
7450 OM 7450 OM OM1 7450 -0.550000 15.99940
7451 OM 7451 OM OM1 7451 -0.550000 15.99940
7452 OM 7452 OM OM1 7452 -0.550000 15.99940
7453 OM 7453 OM OM1 7453 -0.550000 15.99940
7454 OM 7454 OM OM1 7454 -0.550000 15.99940
7455 OM 7455 OM OM1 7455 -0.550000 15.99940
7456 OM 7456 OM OM1 7456 -0.550000 15.99940
7457 OM 7457 OM OM1 7457 -0.550000 15.99940
7458 OM 7458 OM OM1 7458 -0.550000 15.99940
7459 OM 7459 OM OM1 7459 -0.550000 15.99940
7460 OM 7460 OM OM1 7460 -0.550000 15.99940
7461 OM 7461 OM OM1 7461 -0.550000 15.99940
7462 OM 7462 OM OM1 7462 -0.550000 15.99940
7463 OM 7463 OM OM1 7463 -0.550000 15.99940
7464 OM 7464 OM OM1 7464 -0.550000 15.99940
7465 OM 7465 OM OM1 7465 -0.550000 15.99940
7466 OM 7466 OM OM1 7466 -0.550000 15.99940
7467 OM 7467 OM OM1 7467 -0.550000 15.99940
7468 OM 7468 OM OM1 7468 -0.550000 15.99940
7469 OM 7469 OM OM1 7469 -0.550000 15.99940
7470 OM 7470 OM OM1 7470 -0.550000 15.99940
7471 OM 7471 OM OM1 7471 -0.550000 15.99940
7472 OM 7472 OM OM1 7472 -0.550000 15.99940
7473 OM 7473 OM OM1 7473 -0.550000 15.99940
7474 OM 7474 OM OM1 7474 -0.550000 15.99940
7475 OM 7475 OM OM1 7475 -0.550000 15.99940
7476 OM 7476 OM OM1 7476 -0.550000 15.99940
7477 OM 7477 OM OM1 7477 -0.550000 15.99940
7478 OM 7478 OM OM1 7478 -0.550000 15.99940
7479 OM 7479 OM OM1 7479 -0.550000 15.99940
7480 OM 7480 OM OM1 7480 -0.550000 15.99940
7481 OM 7481 OM OM1 7481 -0.550000 15.99940
7482 OM 7482 OM OM1 7482 -0.550000 15.99940
7483 OM 7483 OM OM1 7483 -0.550000 15.99940
7484 OM 7484 OM OM1 7484 -0.550000 15.99940
7485 OM 7485 OM OM1 7485 -0.550000 15.99940
7486 OM 7486 OM OM1 7486 -0.550000 15.99940
7487 OM 7487 OM OM1 7487 -0.550000 15.99940
7488 OM 7488 OM OM1 7488 -0.550000 15.99940
7489 OM 7489 OM OM1 7489 -0.550000 15.99940
7490 OM 7490 OM OM1 7490 -0.550000 15.99940
7491 OM 7491 OM OM1 7491 -0.550000 15.99940
7492 OM 7492 OM OM1 7492 -0.550000 15.99940
7493 OM 7493 OM OM1 7493 -0.550000 15.99940
7494 OM 7494 OM OM1 7494 -0.550000 15.99940
7495 OM 7495 OM OM1 7495 -0.550000 15.99940
7496 OM 7496 OM OM1 7496 -0.550000 15.99940
7497 OM 7497 OM OM1 7497 -0.550000 15.99940
7498 OM 7498 OM OM1 7498 -0.550000 15.99940
7499 OM 7499 OM OM1 7499 -0.550000 15.99940
7500 OM 7500 OM OM1 7500 -0.550000 15.99940
7501 OM 7501 OM OM1 7501 -0.550000 15.99940
7502 OM 7502 OM OM1 7502 -0.550000 15.99940
7503 OM 7503 OM OM1 7503 -0.550000 15.99940
7504 OM 7504 OM OM1 7504 -0.550000 15.99940
7505 OM 7505 OM OM1 7505 -0.550000 15.99940
7506 OM 7506 OM OM1 7506 -0.550000 15.99940
7507 OM 7507 OM OM1 7507 -0.550000 15.99940
7508 OM 7508 OM OM1 7508 -0.550000 15.99940
7509 OM 7509 OM OM1 7509 -0.550000 15.99940
7510 OM 7510 OM OM1 7510 -0.550000 15.99940
7511 OM 7511 OM OM1 7511 -0.550000 15.99940
7512 OM 7512 OM OM1 7512 -0.550000 15.99940
7513 OM 7513 OM OM1 7513 -0.550000 15.99940
7514 OM 7514 OM OM1 7514 -0.550000 15.99940
7515 OM 7515 OM OM1 7515 -0.550000 15.99940
7516 OM 7516 OM OM1 7516 -0.550000 15.99940
7517 OM 7517 OM OM1 7517 -0.550000 15.99940
7518 OM 7518 OM OM1 7518 -0.550000 15.99940
7519 OM 7519 OM OM1 7519 -0.550000 15.99940
7520 OM 7520 OM OM1 7520 -0.550000 15.99940
7521 OM 7521 OM OM1 7521 -0.550000 15.99940
7522 OM 7522 OM OM1 7522 -0.550000 15.99940
7523 OM 7523 OM OM1 7523 -0.550000 15.99940
7524 OM 7524 OM OM1 7524 -0.550000 15.99940
7525 OM 7525 OM OM1 7525 -0.550000 15.99940
7526 OM 7526 OM OM1 7526 -0.550000 15.99940
7527 OM 7527 OM OM1 7527 -0.550000 15.99940
7528 OM 7528 OM OM1 7528 -0.550000 15.99940
7529 OM 7529 OM OM1 7529 -0.550000 15.99940
7530 OM 7530 OM OM1 7530 -0.550000 15.99940
7531 OM 7531 OM OM1 7531 -0.550000 15.99940
7532 OM 7532 OM OM1 7532 -0.550000 15.99940
7533 OM 7533 OM OM1 7533 -0.550000 15.99940
7534 OM 7534 OM OM1 7534 -0.550000 15.99940
7535 OM 7535 OM OM1 7535 -0.550000 15.99940
7536 OM 7536 OM OM1 7536 -0.550000 15.99940
7537 OM 7537 OM OM1 7537 -0.550000 15.99940
7538 OM 7538 OM OM1 7538 -0.550000 15.99940
7539 OM 7539 OM OM1 7539 -0.550000 15.99940
7540 OM 7540 OM OM1 7540 -0.550000 15.99940
7541 OM 7541 OM OM1 7541 -0.550000 15.99940
7542 OM 7542 OM OM1 7542 -0.550000 15.99940
7543 OM 7543 OM OM1 7543 -0.550000 15.99940
7544 OM 7544 OM OM1 7544 -0.550000 15.99940
7545 OM 7545 OM OM1 7545 -0.550000 15.99940
7546 OM 7546 OM OM1 7546 -0.550000 15.99940
7547 OM 7547 OM OM1 7547 -0.550000 15.99940
7548 OM 7548 OM OM1 7548 -0.550000 15.99940
7549 OM 7549 OM OM1 7549 -0.550000 15.99940
7550 OM 7550 OM OM1 7550 -0.550000 15.99940
7551 OM 7551 OM OM1 7551 -0.550000 15.99940
7552 OM 7552 OM OM1 7552 -0.550000 15.99940
7553 OM 7553 OM OM1 7553 -0.550000 15.99940
7554 OM 7554 OM OM1 7554 -0.550000 15.99940
7555 OM 7555 OM OM1 7555 -0.550000 15.99940
7556 OM 7556 OM OM1 7556 -0.550000 15.99940
7557 OM 7557 OM OM1 7557 -0.550000 15.99940
7558 OM 7558 OM OM1 7558 -0.550000 15.99940
7559 OM 7559 OM OM1 7559 -0.550000 15.99940
7560 OM 7560 OM OM1 7560 -0.550000 15.99940
7561 OM 7561 OM OM1 7561 -0.550000 15.99940
7562 OM 7562 OM OM1 7562 -0.550000 15.99940
7563 OM 7563 OM OM1 7563 -0.550000 15.99940
7564 OM 7564 OM OM1 7564 -0.550000 15.99940
7565 OM 7565 OM OM1 7565 -0.550000 15.99940
7566 OM 7566 OM OM1 7566 -0.550000 15.99940
7567 OM 7567 OM OM1 7567 -0.550000 15.99940
7568 OM 7568 OM OM1 7568 -0.550000 15.99940
7569 OM 7569 OM OM1 7569 -0.550000 15.99940
7570 OM 7570 OM OM1 7570 -0.550000 15.99940
7571 OM 7571 OM OM1 7571 -0.550000 15.99940
7572 OM 7572 OM OM1 7572 -0.550000 15.99940
7573 OM 7573 OM OM1 7573 -0.550000 15.99940
7574 OM 7574 OM OM1 7574 -0.550000 15.99940
7575 OM 7575 OM OM1 7575 -0.550000 15.99940
7576 OM 7576 OM OM1 7576 -0.550000 15.99940
7577 OM 7577 OM OM1 7577 -0.550000 15.99940
7578 OM 7578 OM OM1 7578 -0.550000 15.99940
7579 OM 7579 OM OM1 7579 -0.550000 15.99940
7580 OM 7580 OM OM1 7580 -0.550000 15.99940
7581 OM 7581 OM OM1 7581 -0.550000 15.99940
7582 OM 7582 OM OM1 7582 -0.550000 15.99940
7583 OM 7583 OM OM1 7583 -0.550000 15.99940
7584 OM 7584 OM OM1 7584 -0.550000 15.99940
7585 OM 7585 OM OM1 7585 -0.550000 15.99940
7586 OM 7586 OM OM1 7586 -0.550000 15.99940
7587 OM 7587 OM OM1 7587 -0.550000 15.99940
7588 OM 7588 OM OM1 7588 -0.550000 15.99940
7589 OM 7589 OM OM1 7589 -0.550000 15.99940
7590 OM 7590 OM OM1 7590 -0.550000 15.99940
7591 OM 7591 OM OM1 7591 -0.550000 15.99940
7592 OM 7592 OM OM1 7592 -0.550000 15.99940
7593 OM 7593 OM OM1 7593 -0.550000 15.99940
7594 OM 7594 OM OM1 7594 -0.550000 15.99940
7595 OM 7595 OM OM1 7595 -0.550000 15.99940
7596 OM 7596 OM OM1 7596 -0.550000 15.99940
7597 OM 7597 OM OM1 7597 -0.550000 15.99940
7598 OM 7598 OM OM1 7598 -0.550000 15.99940
7599 OM 7599 OM OM1 7599 -0.550000 15.99940
7600 OM 7600 OM OM1 7600 -0.550000 15.99940
7601 OM 7601 OM OM1 7601 -0.550000 15.99940
7602 OM 7602 OM OM1 7602 -0.550000 15.99940
7603 OM 7603 OM OM1 7603 -0.550000 15.99940
7604 OM 7604 OM OM1 7604 -0.550000 15.99940
7605 OM 7605 OM OM1 7605 -0.550000 15.99940
7606 OM 7606 OM OM1 7606 -0.550000 15.99940
7607 OM 7607 OM OM1 7607 -0.550000 15.99940
7608 OM 7608 OM OM1 7608 -0.550000 15.99940
7609 OM 7609 OM OM1 7609 -0.550000 15.99940
7610 OM 7610 OM OM1 7610 -0.550000 15.99940
7611 OM 7611 OM OM1 7611 -0.550000 15.99940
7612 OM 7612 OM OM1 7612 -0.550000 15.99940
7613 OM 7613 OM OM1 7613 -0.550000 15.99940
7614 OM 7614 OM OM1 7614 -0.550000 15.99940
7615 OM 7615 OM OM1 7615 -0.550000 15.99940
7616 OM 7616 OM OM1 7616 -0.550000 15.99940
7617 OM 7617 OM OM1 7617 -0.550000 15.99940
7618 OM 7618 OM OM1 7618 -0.550000 15.99940
7619 OM 7619 OM OM1 7619 -0.550000 15.99940
7620 OM 7620 OM OM1 7620 -0.550000 15.99940
7621 OM 7621 OM OM1 7621 -0.550000 15.99940
7622 OM 7622 OM OM1 7622 -0.550000 15.99940
7623 OM 7623 OM OM1 7623 -0.550000 15.99940
7624 OM 7624 OM OM1 7624 -0.550000 15.99940
7625 OM 7625 OM OM1 7625 -0.550000 15.99940
7626 OM 7626 OM OM1 7626 -0.550000 15.99940
7627 OM 7627 OM OM1 7627 -0.550000 15.99940
7628 OM 7628 OM OM1 7628 -0.550000 15.99940
7629 OM 7629 OM OM1 7629 -0.550000 15.99940
7630 OM 7630 OM OM1 7630 -0.550000 15.99940
7631 OM 7631 OM OM1 7631 -0.550000 15.99940
7632 OM 7632 OM OM1 7632 -0.550000 15.99940
7633 OM 7633 OM OM1 7633 -0.550000 15.99940
7634 OM 7634 OM OM1 7634 -0.550000 15.99940
7635 OM 7635 OM OM1 7635 -0.550000 15.99940
7636 OM 7636 OM OM1 7636 -0.550000 15.99940
7637 OM 7637 OM OM1 7637 -0.550000 15.99940
7638 OM 7638 OM OM1 7638 -0.550000 15.99940
7639 OM 7639 OM OM1 7639 -0.550000 15.99940
7640 OM 7640 OM OM1 7640 -0.550000 15.99940
7641 OM 7641 OM OM1 7641 -0.550000 15.99940
7642 OM 7642 OM OM1 7642 -0.550000 15.99940
7643 OM 7643 OM OM1 7643 -0.550000 15.99940
7644 OM 7644 OM OM1 7644 -0.550000 15.99940
7645 OM 7645 OM OM1 7645 -0.550000 15.99940
7646 OM 7646 OM OM1 7646 -0.550000 15.99940
7647 OM 7647 OM OM1 7647 -0.550000 15.99940
7648 OM 7648 OM OM1 7648 -0.550000 15.99940
7649 OM 7649 OM OM1 7649 -0.550000 15.99940
7650 OM 7650 OM OM1 7650 -0.550000 15.99940
7651 OM 7651 OM OM1 7651 -0.550000 15.99940
7652 OM 7652 OM OM1 7652 -0.550000 15.99940
7653 OM 7653 OM OM1 7653 -0.550000 15.99940
7654 OM 7654 OM OM1 7654 -0.550000 15.99940
7655 OM 7655 OM OM1 7655 -0.550000 15.99940
7656 OM 7656 OM OM1 7656 -0.550000 15.99940
7657 OM 7657 OM OM1 7657 -0.550000 15.99940
7658 OM 7658 OM OM1 7658 -0.550000 15.99940
7659 OM 7659 OM OM1 7659 -0.550000 15.99940
7660 OM 7660 OM OM1 7660 -0.550000 15.99940
7661 OM 7661 OM OM1 7661 -0.550000 15.99940
7662 OM 7662 OM OM1 7662 -0.550000 15.99940
7663 OM 7663 OM OM1 7663 -0.550000 15.99940
7664 OM 7664 OM OM1 7664 -0.550000 15.99940
7665 OM 7665 OM OM1 7665 -0.550000 15.99940
7666 OM 7666 OM OM1 7666 -0.550000 15.99940
7667 OM 7667 OM OM1 7667 -0.550000 15.99940
7668 OM 7668 OM OM1 7668 -0.550000 15.99940
7669 OM 7669 OM OM1 7669 -0.550000 15.99940
7670 OM 7670 OM OM1 7670 -0.550000 15.99940
7671 OM 7671 OM OM1 7671 -0.550000 15.99940
7672 OM 7672 OM OM1 7672 -0.550000 15.99940
7673 OM 7673 OM OM1 7673 -0.550000 15.99940
7674 OM 7674 OM OM1 7674 -0.550000 15.99940
7675 OM 7675 OM OM1 7675 -0.550000 15.99940
7676 OM 7676 OM OM1 7676 -0.550000 15.99940
7677 OM 7677 OM OM1 7677 -0.550000 15.99940
7678 OM 7678 OM OM1 7678 -0.550000 15.99940
7679 OM 7679 OM OM1 7679 -0.550000 15.99940
7680 OM 7680 OM OM1 7680 -0.550000 15.99940
7681 OM 7681 OM OM1 7681 -0.550000 15.99940
7682 OM 7682 OM OM1 7682 -0.550000 15.99940
7683 OM 7683 OM OM1 7683 -0.550000 15.99940
7684 OM 7684 OM OM1 7684 -0.550000 15.99940
7685 OM 7685 OM OM1 7685 -0.550000 15.99940
7686 OM 7686 OM OM1 7686 -0.550000 15.99940
7687 OM 7687 OM OM1 7687 -0.550000 15.99940
7688 OM 7688 OM OM1 7688 -0.550000 15.99940
7689 OM 7689 OM OM1 7689 -0.550000 15.99940
7690 OM 7690 OM OM1 7690 -0.550000 15.99940
7691 OM 7691 OM OM1 7691 -0.550000 15.99940
7692 OM 7692 OM OM1 7692 -0.550000 15.99940
7693 OM 7693 OM OM1 7693 -0.550000 15.99940
7694 OM 7694 OM OM1 7694 -0.550000 15.99940
7695 OM 7695 OM OM1 7695 -0.550000 15.99940
7696 OM 7696 OM OM1 7696 -0.550000 15.99940
7697 OM 7697 OM OM1 7697 -0.550000 15.99940
7698 OM 7698 OM OM1 7698 -0.550000 15.99940
7699 OM 7699 OM OM1 7699 -0.550000 15.99940
7700 OM 7700 OM OM1 7700 -0.550000 15.99940
7701 OM 7701 OM OM1 7701 -0.550000 15.99940
7702 OM 7702 OM OM1 7702 -0.550000 15.99940
7703 OM 7703 OM OM1 7703 -0.550000 15.99940
7704 OM 7704 OM OM1 7704 -0.550000 15.99940
7705 OM 7705 OM OM1 7705 -0.550000 15.99940
7706 OM 7706 OM OM1 7706 -0.550000 15.99940
7707 OM 7707 OM OM1 7707 -0.550000 15.99940
7708 OM 7708 OM OM1 7708 -0.550000 15.99940
7709 OM 7709 OM OM1 7709 -0.550000 15.99940
7710 OM 7710 OM OM1 7710 -0.550000 15.99940
7711 OM 7711 OM OM1 7711 -0.550000 15.99940
7712 OM 7712 OM OM1 7712 -0.550000 15.99940
7713 OM 7713 OM OM1 7713 -0.550000 15.99940
7714 OM 7714 OM OM1 7714 -0.550000 15.99940
7715 OM 7715 OM OM1 7715 -0.550000 15.99940
7716 OM 7716 OM OM1 7716 -0.550000 15.99940
7717 OM 7717 OM OM1 7717 -0.550000 15.99940
7718 OM 7718 OM OM1 7718 -0.550000 15.99940
7719 OM 7719 OM OM1 7719 -0.550000 15.99940
7720 OM 7720 OM OM1 7720 -0.550000 15.99940
7721 OM 7721 OM OM1 7721 -0.550000 15.99940
7722 OM 7722 OM OM1 7722 -0.550000 15.99940
7723 OM 7723 OM OM1 7723 -0.550000 15.99940
7724 OM 7724 OM OM1 7724 -0.550000 15.99940
7725 OM 7725 OM OM1 7725 -0.550000 15.99940
7726 OM 7726 OM OM1 7726 -0.550000 15.99940
7727 OM 7727 OM OM1 7727 -0.550000 15.99940
7728 OM 7728 OM OM1 7728 -0.550000 15.99940
7729 OM 7729 OM OM1 7729 -0.550000 15.99940
7730 OM 7730 OM OM1 7730 -0.550000 15.99940
7731 OM 7731 OM OM1 7731 -0.550000 15.99940
7732 OM 7732 OM OM1 7732 -0.550000 15.99940
7733 OM 7733 OM OM1 7733 -0.550000 15.99940
7734 OM 7734 OM OM1 7734 -0.550000 15.99940
7735 OM 7735 OM OM1 7735 -0.550000 15.99940
7736 OM 7736 OM OM1 7736 -0.550000 15.99940
7737 OM 7737 OM OM1 7737 -0.550000 15.99940
7738 OM 7738 OM OM1 7738 -0.550000 15.99940
7739 OM 7739 OM OM1 7739 -0.550000 15.99940
7740 OM 7740 OM OM1 7740 -0.550000 15.99940
7741 OM 7741 OM OM1 7741 -0.550000 15.99940
7742 OM 7742 OM OM1 7742 -0.550000 15.99940
7743 OM 7743 OM OM1 7743 -0.550000 15.99940
7744 OM 7744 OM OM1 7744 -0.550000 15.99940
7745 OM 7745 OM OM1 7745 -0.550000 15.99940
7746 OM 7746 OM OM1 7746 -0.550000 15.99940
7747 OM 7747 OM OM1 7747 -0.550000 15.99940
7748 OM 7748 OM OM1 7748 -0.550000 15.99940
7749 OM 7749 OM OM1 7749 -0.550000 15.99940
7750 OM 7750 OM OM1 7750 -0.550000 15.99940
7751 OM 7751 OM OM1 7751 -0.550000 15.99940
7752 OM 7752 OM OM1 7752 -0.550000 15.99940
7753 OM 7753 OM OM1 7753 -0.550000 15.99940
7754 OM 7754 OM OM1 7754 -0.550000 15.99940
7755 OM 7755 OM OM1 7755 -0.550000 15.99940
7756 OM 7756 OM OM1 7756 -0.550000 15.99940
7757 OM 7757 OM OM1 7757 -0.550000 15.99940
7758 OM 7758 OM OM1 7758 -0.550000 15.99940
7759 OM 7759 OM OM1 7759 -0.550000 15.99940
7760 OM 7760 OM OM1 7760 -0.550000 15.99940
7761 OM 7761 OM OM1 7761 -0.550000 15.99940
7762 OM 7762 OM OM1 7762 -0.550000 15.99940
7763 OM 7763 OM OM1 7763 -0.550000 15.99940
7764 OM 7764 OM OM1 7764 -0.550000 15.99940
7765 OM 7765 OM OM1 7765 -0.550000 15.99940
7766 OM 7766 OM OM1 7766 -0.550000 15.99940
7767 OM 7767 OM OM1 7767 -0.550000 15.99940
7768 OM 7768 OM OM1 7768 -0.550000 15.99940
7769 OM 7769 OM OM1 7769 -0.550000 15.99940
7770 OM 7770 OM OM1 7770 -0.550000 15.99940
7771 OM 7771 OM OM1 7771 -0.550000 15.99940
7772 OM 7772 OM OM1 7772 -0.550000 15.99940
7773 OM 7773 OM OM1 7773 -0.550000 15.99940
7774 OM 7774 OM OM1 7774 -0.550000 15.99940
7775 OM 7775 OM OM1 7775 -0.550000 15.99940
7776 OM 7776 OM OM1 7776 -0.550000 15.99940
7777 OM 7777 OM OM1 7777 -0.550000 15.99940
7778 OM 7778 OM OM1 7778 -0.550000 15.99940
7779 OM 7779 OM OM1 7779 -0.550000 15.99940
7780 OM 7780 OM OM1 7780 -0.550000 15.99940
7781 OM 7781 OM OM1 7781 -0.550000 15.99940
7782 OM 7782 OM OM1 7782 -0.550000 15.99940
7783 OM 7783 OM OM1 7783 -0.550000 15.99940
7784 OM 7784 OM OM1 7784 -0.550000 15.99940
7785 OM 7785 OM OM1 7785 -0.550000 15.99940
7786 OM 7786 OM OM1 7786 -0.550000 15.99940
7787 OM 7787 OM OM1 7787 -0.550000 15.99940
7788 OM 7788 OM OM1 7788 -0.550000 15.99940
7789 OM 7789 OM OM1 7789 -0.550000 15.99940
7790 OM 7790 OM OM1 7790 -0.550000 15.99940
7791 OM 7791 OM OM1 7791 -0.550000 15.99940
7792 OM 7792 OM OM1 7792 -0.550000 15.99940
7793 OM 7793 OM OM1 7793 -0.550000 15.99940
7794 OM 7794 OM OM1 7794 -0.550000 15.99940
7795 OM 7795 OM OM1 7795 -0.550000 15.99940
7796 OM 7796 OM OM1 7796 -0.550000 15.99940
7797 OM 7797 OM OM1 7797 -0.550000 15.99940
7798 OM 7798 OM OM1 7798 -0.550000 15.99940
7799 OM 7799 OM OM1 7799 -0.550000 15.99940
7800 OM 7800 OM OM1 7800 -0.550000 15.99940
7801 OM 7801 OM OM1 7801 -0.550000 15.99940
7802 OM 7802 OM OM1 7802 -0.550000 15.99940
7803 OM 7803 OM OM1 7803 -0.550000 15.99940
7804 OM 7804 OM OM1 7804 -0.550000 15.99940
7805 OM 7805 OM OM1 7805 -0.550000 15.99940
7806 OM 7806 OM OM1 7806 -0.550000 15.99940
7807 OM 7807 OM OM1 7807 -0.550000 15.99940
7808 OM 7808 OM OM1 7808 -0.550000 15.99940
7809 OM 7809 OM OM1 7809 -0.550000 15.99940
7810 OM 7810 OM OM1 7810 -0.550000 15.99940
7811 OM 7811 OM OM1 7811 -0.550000 15.99940
7812 OM 7812 OM OM1 7812 -0.550000 15.99940
7813 OM 7813 OM OM1 7813 -0.550000 15.99940
7814 OM 7814 OM OM1 7814 -0.550000 15.99940
7815 OM 7815 OM OM1 7815 -0.550000 15.99940
7816 OM 7816 OM OM1 7816 -0.550000 15.99940
7817 OM 7817 OM OM1 7817 -0.550000 15.99940
7818 OM 7818 OM OM1 7818 -0.550000 15.99940
7819 OM 7819 OM OM1 7819 -0.550000 15.99940
7820 OM 7820 OM OM1 7820 -0.550000 15.99940
7821 OM 7821 OM OM1 7821 -0.550000 15.99940
7822 OM 7822 OM OM1 7822 -0.550000 15.99940
7823 OM 7823 OM OM1 7823 -0.550000 15.99940
7824 OM 7824 OM OM1 7824 -0.550000 15.99940
7825 OM 7825 OM OM1 7825 -0.550000 15.99940
7826 OM 7826 OM OM1 7826 -0.550000 15.99940
7827 OM 7827 OM OM1 7827 -0.550000 15.99940
7828 OM 7828 OM OM1 7828 -0.550000 15.99940
7829 OM 7829 OM OM1 7829 -0.550000 15.99940
7830 OM 7830 OM OM1 7830 -0.550000 15.99940
7831 OM 7831 OM OM1 7831 -0.550000 15.99940
7832 OM 7832 OM OM1 7832 -0.550000 15.99940
7833 OM 7833 OM OM1 7833 -0.550000 15.99940
7834 OM 7834 OM OM1 7834 -0.550000 15.99940
7835 OM 7835 OM OM1 7835 -0.550000 15.99940
7836 OM 7836 OM OM1 7836 -0.550000 15.99940
7837 OM 7837 OM OM1 7837 -0.550000 15.99940
7838 OM 7838 OM OM1 7838 -0.550000 15.99940
7839 OM 7839 OM OM1 7839 -0.550000 15.99940
7840 OM 7840 OM OM1 7840 -0.550000 15.99940
7841 OM 7841 OM OM1 7841 -0.550000 15.99940
7842 OM 7842 OM OM1 7842 -0.550000 15.99940
7843 OM 7843 OM OM1 7843 -0.550000 15.99940
7844 OM 7844 OM OM1 7844 -0.550000 15.99940
7845 OM 7845 OM OM1 7845 -0.550000 15.99940
7846 OM 7846 OM OM1 7846 -0.550000 15.99940
7847 OM 7847 OM OM1 7847 -0.550000 15.99940
7848 OM 7848 OM OM1 7848 -0.550000 15.99940
7849 OM 7849 OM OM1 7849 -0.550000 15.99940
7850 OM 7850 OM OM1 7850 -0.550000 15.99940
7851 OM 7851 OM OM1 7851 -0.550000 15.99940
7852 OM 7852 OM OM1 7852 -0.550000 15.99940
7853 OM 7853 OM OM1 7853 -0.550000 15.99940
7854 OM 7854 OM OM1 7854 -0.550000 15.99940
7855 OM 7855 OM OM1 7855 -0.550000 15.99940
7856 OM 7856 OM OM1 7856 -0.550000 15.99940
7857 OM 7857 OM OM1 7857 -0.550000 15.99940
7858 OM 7858 OM OM1 7858 -0.550000 15.99940
7859 OM 7859 OM OM1 7859 -0.550000 15.99940
7860 OM 7860 OM OM1 7860 -0.550000 15.99940
7861 OM 7861 OM OM1 7861 -0.550000 15.99940
7862 OM 7862 OM OM1 7862 -0.550000 15.99940
7863 OM 7863 OM OM1 7863 -0.550000 15.99940
7864 OM 7864 OM OM1 7864 -0.550000 15.99940
7865 OM 7865 OM OM1 7865 -0.550000 15.99940
7866 OM 7866 OM OM1 7866 -0.550000 15.99940
7867 OM 7867 OM OM1 7867 -0.550000 15.99940
7868 OM 7868 OM OM1 7868 -0.550000 15.99940
7869 OM 7869 OM OM1 7869 -0.550000 15.99940
7870 OM 7870 OM OM1 7870 -0.550000 15.99940
7871 OM 7871 OM OM1 7871 -0.550000 15.99940
7872 OM 7872 OM OM1 7872 -0.550000 15.99940
7873 OM 7873 OM OM1 7873 -0.550000 15.99940
7874 OM 7874 OM OM1 7874 -0.550000 15.99940
7875 OM 7875 OM OM1 7875 -0.550000 15.99940
7876 OM 7876 OM OM1 7876 -0.550000 15.99940
7877 OM 7877 OM OM1 7877 -0.550000 15.99940
7878 OM 7878 OM OM1 7878 -0.550000 15.99940
7879 OM 7879 OM OM1 7879 -0.550000 15.99940
7880 OM 7880 OM OM1 7880 -0.550000 15.99940
7881 OM 7881 OM OM1 7881 -0.550000 15.99940
7882 OM 7882 OM OM1 7882 -0.550000 15.99940
7883 OM 7883 OM OM1 7883 -0.550000 15.99940
7884 OM 7884 OM OM1 7884 -0.550000 15.99940
7885 OM 7885 OM OM1 7885 -0.550000 15.99940
7886 OM 7886 OM OM1 7886 -0.550000 15.99940
7887 OM 7887 OM OM1 7887 -0.550000 15.99940
7888 OM 7888 OM OM1 7888 -0.550000 15.99940
7889 OM 7889 OM OM1 7889 -0.550000 15.99940
7890 OM 7890 OM OM1 7890 -0.550000 15.99940
7891 OM 7891 OM OM1 7891 -0.550000 15.99940
7892 OM 7892 OM OM1 7892 -0.550000 15.99940
7893 OM 7893 OM OM1 7893 -0.550000 15.99940
7894 OM 7894 OM OM1 7894 -0.550000 15.99940
7895 OM 7895 OM OM1 7895 -0.550000 15.99940
7896 OM 7896 OM OM1 7896 -0.550000 15.99940
7897 OM 7897 OM OM1 7897 -0.550000 15.99940
7898 OM 7898 OM OM1 7898 -0.550000 15.99940
7899 OM 7899 OM OM1 7899 -0.550000 15.99940
7900 OM 7900 OM OM1 7900 -0.550000 15.99940
7901 OM 7901 OM OM1 7901 -0.550000 15.99940
7902 OM 7902 OM OM1 7902 -0.550000 15.99940
7903 OM 7903 OM OM1 7903 -0.550000 15.99940
7904 OM 7904 OM OM1 7904 -0.550000 15.99940
7905 OM 7905 OM OM1 7905 -0.550000 15.99940
7906 OM 7906 OM OM1 7906 -0.550000 15.99940
7907 OM 7907 OM OM1 7907 -0.550000 15.99940
7908 OM 7908 OM OM1 7908 -0.550000 15.99940
7909 OM 7909 OM OM1 7909 -0.550000 15.99940
7910 OM 7910 OM OM1 7910 -0.550000 15.99940
7911 OM 7911 OM OM1 7911 -0.550000 15.99940
7912 OM 7912 OM OM1 7912 -0.550000 15.99940
7913 OM 7913 OM OM1 7913 -0.550000 15.99940
7914 OM 7914 OM OM1 7914 -0.550000 15.99940
7915 OM 7915 OM OM1 7915 -0.550000 15.99940
7916 OM 7916 OM OM1 7916 -0.550000 15.99940
7917 OM 7917 OM OM1 7917 -0.550000 15.99940
7918 OM 7918 OM OM1 7918 -0.550000 15.99940
7919 OM 7919 OM OM1 7919 -0.550000 15.99940
7920 OM 7920 OM OM1 7920 -0.550000 15.99940
7921 OM 7921 OM OM1 7921 -0.550000 15.99940
7922 OM 7922 OM OM1 7922 -0.550000 15.99940
7923 OM 7923 OM OM1 7923 -0.550000 15.99940
7924 OM 7924 OM OM1 7924 -0.550000 15.99940
7925 OM 7925 OM OM1 7925 -0.550000 15.99940
7926 OM 7926 OM OM1 7926 -0.550000 15.99940
7927 OM 7927 OM OM1 7927 -0.550000 15.99940
7928 OM 7928 OM OM1 7928 -0.550000 15.99940
7929 OM 7929 OM OM1 7929 -0.550000 15.99940
7930 OM 7930 OM OM1 7930 -0.550000 15.99940
7931 OM 7931 OM OM1 7931 -0.550000 15.99940
7932 OM 7932 OM OM1 7932 -0.550000 15.99940
7933 OM 7933 OM OM1 7933 -0.550000 15.99940
7934 OM 7934 OM OM1 7934 -0.550000 15.99940
7935 OM 7935 OM OM1 7935 -0.550000 15.99940
7936 OM 7936 OM OM1 7936 -0.550000 15.99940
7937 OM 7937 OM OM1 7937 -0.550000 15.99940
7938 OM 7938 OM OM1 7938 -0.550000 15.99940
7939 OM 7939 OM OM1 7939 -0.550000 15.99940
7940 OM 7940 OM OM1 7940 -0.550000 15.99940
7941 OM 7941 OM OM1 7941 -0.550000 15.99940
7942 OM 7942 OM OM1 7942 -0.550000 15.99940
7943 OM 7943 OM OM1 7943 -0.550000 15.99940
7944 OM 7944 OM OM1 7944 -0.550000 15.99940
7945 OM 7945 OM OM1 7945 -0.550000 15.99940
7946 OM 7946 OM OM1 7946 -0.550000 15.99940
7947 OM 7947 OM OM1 7947 -0.550000 15.99940
7948 OM 7948 OM OM1 7948 -0.550000 15.99940
7949 OM 7949 OM OM1 7949 -0.550000 15.99940
7950 OM 7950 OM OM1 7950 -0.550000 15.99940
7951 OM 7951 OM OM1 7951 -0.550000 15.99940
7952 OM 7952 OM OM1 7952 -0.550000 15.99940
7953 OM 7953 OM OM1 7953 -0.550000 15.99940
7954 OM 7954 OM OM1 7954 -0.550000 15.99940
7955 OM 7955 OM OM1 7955 -0.550000 15.99940
7956 OM 7956 OM OM1 7956 -0.550000 15.99940
7957 OM 7957 OM OM1 7957 -0.550000 15.99940
7958 OM 7958 OM OM1 7958 -0.550000 15.99940
7959 OM 7959 OM OM1 7959 -0.550000 15.99940
7960 OM 7960 OM OM1 7960 -0.550000 15.99940
7961 OM 7961 OM OM1 7961 -0.550000 15.99940
7962 OM 7962 OM OM1 7962 -0.550000 15.99940
7963 OM 7963 OM OM1 7963 -0.550000 15.99940
7964 OM 7964 OM OM1 7964 -0.550000 15.99940
7965 OM 7965 OM OM1 7965 -0.550000 15.99940
7966 OM 7966 OM OM1 7966 -0.550000 15.99940
7967 OM 7967 OM OM1 7967 -0.550000 15.99940
7968 OM 7968 OM OM1 7968 -0.550000 15.99940
7969 OM 7969 OM OM1 7969 -0.550000 15.99940
7970 OM 7970 OM OM1 7970 -0.550000 15.99940
7971 OM 7971 OM OM1 7971 -0.550000 15.99940
7972 OM 7972 OM OM1 7972 -0.550000 15.99940
7973 OM 7973 OM OM1 7973 -0.550000 15.99940
7974 OM 7974 OM OM1 7974 -0.550000 15.99940
7975 OM 7975 OM OM1 7975 -0.550000 15.99940
7976 OM 7976 OM OM1 7976 -0.550000 15.99940
7977 OM 7977 OM OM1 7977 -0.550000 15.99940
7978 OM 7978 OM OM1 7978 -0.550000 15.99940
7979 OM 7979 OM OM1 7979 -0.550000 15.99940
7980 OM 7980 OM OM1 7980 -0.550000 15.99940
7981 OM 7981 OM OM1 7981 -0.550000 15.99940
7982 OM 7982 OM OM1 7982 -0.550000 15.99940
7983 OM 7983 OM OM1 7983 -0.550000 15.99940
7984 OM 7984 OM OM1 7984 -0.550000 15.99940
7985 OM 7985 OM OM1 7985 -0.550000 15.99940
7986 OM 7986 OM OM1 7986 -0.550000 15.99940
7987 OM 7987 OM OM1 7987 -0.550000 15.99940
7988 OM 7988 OM OM1 7988 -0.550000 15.99940
7989 OM 7989 OM OM1 7989 -0.550000 15.99940
7990 OM 7990 OM OM1 7990 -0.550000 15.99940
7991 OM 7991 OM OM1 7991 -0.550000 15.99940
7992 OM 7992 OM OM1 7992 -0.550000 15.99940
7993 OM 7993 OM OM1 7993 -0.550000 15.99940
7994 OM 7994 OM OM1 7994 -0.550000 15.99940
7995 OM 7995 OM OM1 7995 -0.550000 15.99940
7996 OM 7996 OM OM1 7996 -0.550000 15.99940
7997 OM 7997 OM OM1 7997 -0.550000 15.99940
7998 OM 7998 OM OM1 7998 -0.550000 15.99940
7999 OM 7999 OM OM1 7999 -0.550000 15.99940
8000 OM 8000 OM OM1 8000 -0.550000 15.99940
8001 OM 8001 OM OM1 8001 -0.550000 15.99940
8002 OM 8002 OM OM1 8002 -0.550000 15.99940
8003 OM 8003 OM OM1 8003 -0.550000 15.99940
8004 OM 8004 OM OM1 8004 -0.550000 15.99940
8005 OM 8005 OM OM1 8005 -0.550000 15.99940
8006 OM 8006 OM OM1 8006 -0.550000 15.99940
8007 OM 8007 OM OM1 8007 -0.550000 15.99940
8008 OM 8008 OM OM1 8008 -0.550000 15.99940
8009 OM 8009 OM OM1 8009 -0.550000 15.99940
8010 OM 8010 OM OM1 8010 -0.550000 15.99940
8011 OM 8011 OM OM1 8011 -0.550000 15.99940
8012 OM 8012 OM OM1 8012 -0.550000 15.99940
8013 OM 8013 OM OM1 8013 -0.550000 15.99940
8014 OM 8014 OM OM1 8014 -0.550000 15.99940
8015 OM 8015 OM OM1 8015 -0.550000 15.99940
8016 OM 8016 OM OM1 8016 -0.550000 15.99940
8017 OM 8017 OM OM1 8017 -0.550000 15.99940
8018 OM 8018 OM OM1 8018 -0.550000 15.99940
8019 OM 8019 OM OM1 8019 -0.550000 15.99940
8020 OM 8020 OM OM1 8020 -0.550000 15.99940
8021 OM 8021 OM OM1 8021 -0.550000 15.99940
8022 OM 8022 OM OM1 8022 -0.550000 15.99940
8023 OM 8023 OM OM1 8023 -0.550000 15.99940
8024 OM 8024 OM OM1 8024 -0.550000 15.99940
8025 OM 8025 OM OM1 8025 -0.550000 15.99940
8026 OM 8026 OM OM1 8026 -0.550000 15.99940
8027 OM 8027 OM OM1 8027 -0.550000 15.99940
8028 OM 8028 OM OM1 8028 -0.550000 15.99940
8029 OM 8029 OM OM1 8029 -0.550000 15.99940
8030 OM 8030 OM OM1 8030 -0.550000 15.99940
8031 OM 8031 OM OM1 8031 -0.550000 15.99940
8032 OM 8032 OM OM1 8032 -0.550000 15.99940
8033 OM 8033 OM OM1 8033 -0.550000 15.99940
8034 OM 8034 OM OM1 8034 -0.550000 15.99940
8035 OM 8035 OM OM1 8035 -0.550000 15.99940
8036 OM 8036 OM OM1 8036 -0.550000 15.99940
8037 OM 8037 OM OM1 8037 -0.550000 15.99940
8038 OM 8038 OM OM1 8038 -0.550000 15.99940
8039 OM 8039 OM OM1 8039 -0.550000 15.99940
8040 OM 8040 OM OM1 8040 -0.550000 15.99940
8041 OM 8041 OM OM1 8041 -0.550000 15.99940
8042 OM 8042 OM OM1 8042 -0.550000 15.99940
8043 OM 8043 OM OM1 8043 -0.550000 15.99940
8044 OM 8044 OM OM1 8044 -0.550000 15.99940
8045 OM 8045 OM OM1 8045 -0.550000 15.99940
8046 OM 8046 OM OM1 8046 -0.550000 15.99940
8047 OM 8047 OM OM1 8047 -0.550000 15.99940
8048 OM 8048 OM OM1 8048 -0.550000 15.99940
8049 OM 8049 OM OM1 8049 -0.550000 15.99940
8050 OM 8050 OM OM1 8050 -0.550000 15.99940
8051 OM 8051 OM OM1 8051 -0.550000 15.99940
8052 OM 8052 OM OM1 8052 -0.550000 15.99940
8053 OM 8053 OM OM1 8053 -0.550000 15.99940
8054 OM 8054 OM OM1 8054 -0.550000 15.99940
8055 OM 8055 OM OM1 8055 -0.550000 15.99940
8056 OM 8056 OM OM1 8056 -0.550000 15.99940
8057 OM 8057 OM OM1 8057 -0.550000 15.99940
8058 OM 8058 OM OM1 8058 -0.550000 15.99940
8059 OM 8059 OM OM1 8059 -0.550000 15.99940
8060 OM 8060 OM OM1 8060 -0.550000 15.99940
8061 OM 8061 OM OM1 8061 -0.550000 15.99940
8062 OM 8062 OM OM1 8062 -0.550000 15.99940
8063 OM 8063 OM OM1 8063 -0.550000 15.99940
8064 OM 8064 OM OM1 8064 -0.550000 15.99940
8065 OM 8065 OM OM1 8065 -0.550000 15.99940
8066 OM 8066 OM OM1 8066 -0.550000 15.99940
8067 OM 8067 OM OM1 8067 -0.550000 15.99940
8068 OM 8068 OM OM1 8068 -0.550000 15.99940
8069 OM 8069 OM OM1 8069 -0.550000 15.99940
8070 OM 8070 OM OM1 8070 -0.550000 15.99940
8071 OM 8071 OM OM1 8071 -0.550000 15.99940
8072 OM 8072 OM OM1 8072 -0.550000 15.99940
8073 OM 8073 OM OM1 8073 -0.550000 15.99940
8074 OM 8074 OM OM1 8074 -0.550000 15.99940
8075 OM 8075 OM OM1 8075 -0.550000 15.99940
8076 OM 8076 OM OM1 8076 -0.550000 15.99940
8077 OM 8077 OM OM1 8077 -0.550000 15.99940
8078 OM 8078 OM OM1 8078 -0.550000 15.99940
8079 OM 8079 OM OM1 8079 -0.550000 15.99940
8080 OM 8080 OM OM1 8080 -0.550000 15.99940
8081 OM 8081 OM OM1 8081 -0.550000 15.99940
8082 OM 8082 OM OM1 8082 -0.550000 15.99940
8083 OM 8083 OM OM1 8083 -0.550000 15.99940
8084 OM 8084 OM OM1 8084 -0.550000 15.99940
8085 OM 8085 OM OM1 8085 -0.550000 15.99940
8086 OM 8086 OM OM1 8086 -0.550000 15.99940
8087 OM 8087 OM OM1 8087 -0.550000 15.99940
8088 OM 8088 OM OM1 8088 -0.550000 15.99940
8089 OM 8089 OM OM1 8089 -0.550000 15.99940
8090 OM 8090 OM OM1 8090 -0.550000 15.99940
8091 OM 8091 OM OM1 8091 -0.550000 15.99940
8092 OM 8092 OM OM1 8092 -0.550000 15.99940
8093 OM 8093 OM OM1 8093 -0.550000 15.99940
8094 OM 8094 OM OM1 8094 -0.550000 15.99940
8095 OM 8095 OM OM1 8095 -0.550000 15.99940
8096 OM 8096 OM OM1 8096 -0.550000 15.99940
8097 OM 8097 OM OM1 8097 -0.550000 15.99940
8098 OM 8098 OM OM1 8098 -0.550000 15.99940
8099 OM 8099 OM OM1 8099 -0.550000 15.99940
8100 OM 8100 OM OM1 8100 -0.550000 15.99940
8101 OM 8101 OM OM1 8101 -0.550000 15.99940
8102 OM 8102 OM OM1 8102 -0.550000 15.99940
8103 OM 8103 OM OM1 8103 -0.550000 15.99940
8104 OM 8104 OM OM1 8104 -0.550000 15.99940
8105 OM 8105 OM OM1 8105 -0.550000 15.99940
8106 OM 8106 OM OM1 8106 -0.550000 15.99940
8107 OM 8107 OM OM1 8107 -0.550000 15.99940
8108 OM 8108 OM OM1 8108 -0.550000 15.99940
8109 OM 8109 OM OM1 8109 -0.550000 15.99940
8110 OM 8110 OM OM1 8110 -0.550000 15.99940
8111 OM 8111 OM OM1 8111 -0.550000 15.99940
8112 OM 8112 OM OM1 8112 -0.550000 15.99940
8113 OM 8113 OM OM1 8113 -0.550000 15.99940
8114 OM 8114 OM OM1 8114 -0.550000 15.99940
8115 OM 8115 OM OM1 8115 -0.550000 15.99940
8116 OM 8116 OM OM1 8116 -0.550000 15.99940
8117 OM 8117 OM OM1 8117 -0.550000 15.99940
8118 OM 8118 OM OM1 8118 -0.550000 15.99940
8119 OM 8119 OM OM1 8119 -0.550000 15.99940
8120 OM 8120 OM OM1 8120 -0.550000 15.99940
8121 OM 8121 OM OM1 8121 -0.550000 15.99940
8122 OM 8122 OM OM1 8122 -0.550000 15.99940
8123 OM 8123 OM OM1 8123 -0.550000 15.99940
8124 OM 8124 OM OM1 8124 -0.550000 15.99940
8125 OM 8125 OM OM1 8125 -0.550000 15.99940
8126 OM 8126 OM OM1 8126 -0.550000 15.99940
8127 OM 8127 OM OM1 8127 -0.550000 15.99940
8128 OM 8128 OM OM1 8128 -0.550000 15.99940
8129 OM 8129 OM OM1 8129 -0.550000 15.99940
8130 OM 8130 OM OM1 8130 -0.550000 15.99940
8131 OM 8131 OM OM1 8131 -0.550000 15.99940
8132 OM 8132 OM OM1 8132 -0.550000 15.99940
8133 OM 8133 OM OM1 8133 -0.550000 15.99940
8134 OM 8134 OM OM1 8134 -0.550000 15.99940
8135 OM 8135 OM OM1 8135 -0.550000 15.99940
8136 OM 8136 OM OM1 8136 -0.550000 15.99940
8137 OM 8137 OM OM1 8137 -0.550000 15.99940
8138 OM 8138 OM OM1 8138 -0.550000 15.99940
8139 OM 8139 OM OM1 8139 -0.550000 15.99940
8140 OM 8140 OM OM1 8140 -0.550000 15.99940
8141 OM 8141 OM OM1 8141 -0.550000 15.99940
8142 OM 8142 OM OM1 8142 -0.550000 15.99940
8143 OM 8143 OM OM1 8143 -0.550000 15.99940
8144 OM 8144 OM OM1 8144 -0.550000 15.99940
8145 OM 8145 OM OM1 8145 -0.550000 15.99940
8146 OM 8146 OM OM1 8146 -0.550000 15.99940
8147 OM 8147 OM OM1 8147 -0.550000 15.99940
8148 OM 8148 OM OM1 8148 -0.550000 15.99940
8149 OM 8149 OM OM1 8149 -0.550000 15.99940
8150 OM 8150 OM OM1 8150 -0.550000 15.99940
8151 OM 8151 OM OM1 8151 -0.550000 15.99940
8152 OM 8152 OM OM1 8152 -0.550000 15.99940
8153 OM 8153 OM OM1 8153 -0.550000 15.99940
8154 OM 8154 OM OM1 8154 -0.550000 15.99940
8155 OM 8155 OM OM1 8155 -0.550000 15.99940
8156 OM 8156 OM OM1 8156 -0.550000 15.99940
8157 OM 8157 OM OM1 8157 -0.550000 15.99940
8158 OM 8158 OM OM1 8158 -0.550000 15.99940
8159 OM 8159 OM OM1 8159 -0.550000 15.99940
8160 OM 8160 OM OM1 8160 -0.550000 15.99940
8161 OM 8161 OM OM1 8161 -0.550000 15.99940
8162 OM 8162 OM OM1 8162 -0.550000 15.99940
8163 OM 8163 OM OM1 8163 -0.550000 15.99940
8164 OM 8164 OM OM1 8164 -0.550000 15.99940
8165 OM 8165 OM OM1 8165 -0.550000 15.99940
8166 OM 8166 OM OM1 8166 -0.550000 15.99940
8167 OM 8167 OM OM1 8167 -0.550000 15.99940
8168 OM 8168 OM OM1 8168 -0.550000 15.99940
8169 OM 8169 OM OM1 8169 -0.550000 15.99940
8170 OM 8170 OM OM1 8170 -0.550000 15.99940
8171 OM 8171 OM OM1 8171 -0.550000 15.99940
8172 OM 8172 OM OM1 8172 -0.550000 15.99940
8173 OM 8173 OM OM1 8173 -0.550000 15.99940
8174 OM 8174 OM OM1 8174 -0.550000 15.99940
8175 OM 8175 OM OM1 8175 -0.550000 15.99940
8176 OM 8176 OM OM1 8176 -0.550000 15.99940
8177 OM 8177 OM OM1 8177 -0.550000 15.99940
8178 OM 8178 OM OM1 8178 -0.550000 15.99940
8179 OM 8179 OM OM1 8179 -0.550000 15.99940
8180 OM 8180 OM OM1 8180 -0.550000 15.99940
8181 OM 8181 OM OM1 8181 -0.550000 15.99940
8182 OM 8182 OM OM1 8182 -0.550000 15.99940
8183 OM 8183 OM OM1 8183 -0.550000 15.99940
8184 OM 8184 OM OM1 8184 -0.550000 15.99940
8185 OM 8185 OM OM1 8185 -0.550000 15.99940
8186 OM 8186 OM OM1 8186 -0.550000 15.99940
8187 OM 8187 OM OM1 8187 -0.550000 15.99940
8188 OM 8188 OM OM1 8188 -0.550000 15.99940
8189 OM 8189 OM OM1 8189 -0.550000 15.99940
8190 OM 8190 OM OM1 8190 -0.550000 15.99940
8191 OM 8191 OM OM1 8191 -0.550000 15.99940
8192 OM 8192 OM OM1 8192 -0.550000 15.99940
8193 OM 8193 OM OM1 8193 -0.550000 15.99940
8194 OM 8194 OM OM1 8194 -0.550000 15.99940
8195 OM 8195 OM OM1 8195 -0.550000 15.99940
8196 OM 8196 OM OM1 8196 -0.550000 15.99940
8197 OM 8197 OM OM1 8197 -0.550000 15.99940
8198 OM 8198 OM OM1 8198 -0.550000 15.99940
8199 OM 8199 OM OM1 8199 -0.550000 15.99940
8200 OM 8200 OM OM1 8200 -0.550000 15.99940
8201 OM 8201 OM OM1 8201 -0.550000 15.99940
8202 OM 8202 OM OM1 8202 -0.550000 15.99940
8203 OM 8203 OM OM1 8203 -0.550000 15.99940
8204 OM 8204 OM OM1 8204 -0.550000 15.99940
8205 OM 8205 OM OM1 8205 -0.550000 15.99940
8206 OM 8206 OM OM1 8206 -0.550000 15.99940
8207 OM 8207 OM OM1 8207 -0.550000 15.99940
8208 OM 8208 OM OM1 8208 -0.550000 15.99940
8209 OM 8209 OM OM1 8209 -0.550000 15.99940
8210 OM 8210 OM OM1 8210 -0.550000 15.99940
8211 OM 8211 OM OM1 8211 -0.550000 15.99940
8212 OM 8212 OM OM1 8212 -0.550000 15.99940
8213 OM 8213 OM OM1 8213 -0.550000 15.99940
8214 OM 8214 OM OM1 8214 -0.550000 15.99940
8215 OM 8215 OM OM1 8215 -0.550000 15.99940
8216 OM 8216 OM OM1 8216 -0.550000 15.99940
8217 OM 8217 OM OM1 8217 -0.550000 15.99940
8218 OM 8218 OM OM1 8218 -0.550000 15.99940
8219 OM 8219 OM OM1 8219 -0.550000 15.99940
8220 OM 8220 OM OM1 8220 -0.550000 15.99940
8221 OM 8221 OM OM1 8221 -0.550000 15.99940
8222 OM 8222 OM OM1 8222 -0.550000 15.99940
8223 OM 8223 OM OM1 8223 -0.550000 15.99940
8224 OM 8224 OM OM1 8224 -0.550000 15.99940
8225 OM 8225 OM OM1 8225 -0.550000 15.99940
8226 OM 8226 OM OM1 8226 -0.550000 15.99940
8227 OM 8227 OM OM1 8227 -0.550000 15.99940
8228 OM 8228 OM OM1 8228 -0.550000 15.99940
8229 OM 8229 OM OM1 8229 -0.550000 15.99940
8230 OM 8230 OM OM1 8230 -0.550000 15.99940
8231 OM 8231 OM OM1 8231 -0.550000 15.99940
8232 OM 8232 OM OM1 8232 -0.550000 15.99940
8233 OM 8233 OM OM1 8233 -0.550000 15.99940
8234 OM 8234 OM OM1 8234 -0.550000 15.99940
8235 OM 8235 OM OM1 8235 -0.550000 15.99940
8236 OM 8236 OM OM1 8236 -0.550000 15.99940
8237 OM 8237 OM OM1 8237 -0.550000 15.99940
8238 OM 8238 OM OM1 8238 -0.550000 15.99940
8239 OM 8239 OM OM1 8239 -0.550000 15.99940
8240 OM 8240 OM OM1 8240 -0.550000 15.99940
8241 OM 8241 OM OM1 8241 -0.550000 15.99940
8242 OM 8242 OM OM1 8242 -0.550000 15.99940
8243 OM 8243 OM OM1 8243 -0.550000 15.99940
8244 OM 8244 OM OM1 8244 -0.550000 15.99940
8245 OM 8245 OM OM1 8245 -0.550000 15.99940
8246 OM 8246 OM OM1 8246 -0.550000 15.99940
8247 OM 8247 OM OM1 8247 -0.550000 15.99940
8248 OM 8248 OM OM1 8248 -0.550000 15.99940
8249 OM 8249 OM OM1 8249 -0.550000 15.99940
8250 OM 8250 OM OM1 8250 -0.550000 15.99940
8251 OM 8251 OM OM1 8251 -0.550000 15.99940
8252 OM 8252 OM OM1 8252 -0.550000 15.99940
8253 OM 8253 OM OM1 8253 -0.550000 15.99940
8254 OM 8254 OM OM1 8254 -0.550000 15.99940
8255 OM 8255 OM OM1 8255 -0.550000 15.99940
8256 OM 8256 OM OM1 8256 -0.550000 15.99940
8257 OM 8257 OM OM1 8257 -0.550000 15.99940
8258 OM 8258 OM OM1 8258 -0.550000 15.99940
8259 OM 8259 OM OM1 8259 -0.550000 15.99940
8260 OM 8260 OM OM1 8260 -0.550000 15.99940
8261 OM 8261 OM OM1 8261 -0.550000 15.99940
8262 OM 8262 OM OM1 8262 -0.550000 15.99940
8263 OM 8263 OM OM1 8263 -0.550000 15.99940
8264 OM 8264 OM OM1 8264 -0.550000 15.99940
8265 OM 8265 OM OM1 8265 -0.550000 15.99940
8266 OM 8266 OM OM1 8266 -0.550000 15.99940
8267 OM 8267 OM OM1 8267 -0.550000 15.99940
8268 OM 8268 OM OM1 8268 -0.550000 15.99940
8269 OM 8269 OM OM1 8269 -0.550000 15.99940
8270 OM 8270 OM OM1 8270 -0.550000 15.99940
8271 OM 8271 OM OM1 8271 -0.550000 15.99940
8272 OM 8272 OM OM1 8272 -0.550000 15.99940
8273 OM 8273 OM OM1 8273 -0.550000 15.99940
8274 OM 8274 OM OM1 8274 -0.550000 15.99940
8275 OM 8275 OM OM1 8275 -0.550000 15.99940
8276 OM 8276 OM OM1 8276 -0.550000 15.99940
8277 OM 8277 OM OM1 8277 -0.550000 15.99940
8278 OM 8278 OM OM1 8278 -0.550000 15.99940
8279 OM 8279 OM OM1 8279 -0.550000 15.99940
8280 OM 8280 OM OM1 8280 -0.550000 15.99940
8281 OM 8281 OM OM1 8281 -0.550000 15.99940
8282 OM 8282 OM OM1 8282 -0.550000 15.99940
8283 OM 8283 OM OM1 8283 -0.550000 15.99940
8284 OM 8284 OM OM1 8284 -0.550000 15.99940
8285 OM 8285 OM OM1 8285 -0.550000 15.99940
8286 OM 8286 OM OM1 8286 -0.550000 15.99940
8287 OM 8287 OM OM1 8287 -0.550000 15.99940
8288 OM 8288 OM OM1 8288 -0.550000 15.99940
8289 OM 8289 OM OM1 8289 -0.550000 15.99940
8290 OM 8290 OM OM1 8290 -0.550000 15.99940
8291 OM 8291 OM OM1 8291 -0.550000 15.99940
8292 OM 8292 OM OM1 8292 -0.550000 15.99940
8293 OM 8293 OM OM1 8293 -0.550000 15.99940
8294 OM 8294 OM OM1 8294 -0.550000 15.99940
8295 OM 8295 OM OM1 8295 -0.550000 15.99940
8296 OM 8296 OM OM1 8296 -0.550000 15.99940
8297 OM 8297 OM OM1 8297 -0.550000 15.99940
8298 OM 8298 OM OM1 8298 -0.550000 15.99940
8299 OM 8299 OM OM1 8299 -0.550000 15.99940
8300 OM 8300 OM OM1 8300 -0.550000 15.99940
8301 OM 8301 OM OM1 8301 -0.550000 15.99940
8302 OM 8302 OM OM1 8302 -0.550000 15.99940
8303 OM 8303 OM OM1 8303 -0.550000 15.99940
8304 OM 8304 OM OM1 8304 -0.550000 15.99940
8305 OM 8305 OM OM1 8305 -0.550000 15.99940
8306 OM 8306 OM OM1 8306 -0.550000 15.99940
8307 OM 8307 OM OM1 8307 -0.550000 15.99940
8308 OM 8308 OM OM1 8308 -0.550000 15.99940
8309 OM 8309 OM OM1 8309 -0.550000 15.99940
8310 OM 8310 OM OM1 8310 -0.550000 15.99940
8311 OM 8311 OM OM1 8311 -0.550000 15.99940
8312 OM 8312 OM OM1 8312 -0.550000 15.99940
8313 OM 8313 OM OM1 8313 -0.550000 15.99940
8314 OM 8314 OM OM1 8314 -0.550000 15.99940
8315 OM 8315 OM OM1 8315 -0.550000 15.99940
8316 OM 8316 OM OM1 8316 -0.550000 15.99940
8317 OM 8317 OM OM1 8317 -0.550000 15.99940
8318 OM 8318 OM OM1 8318 -0.550000 15.99940
8319 OM 8319 OM OM1 8319 -0.550000 15.99940
8320 OM 8320 OM OM1 8320 -0.550000 15.99940
8321 OM 8321 OM OM1 8321 -0.550000 15.99940
8322 OM 8322 OM OM1 8322 -0.550000 15.99940
8323 OM 8323 OM OM1 8323 -0.550000 15.99940
8324 OM 8324 OM OM1 8324 -0.550000 15.99940
8325 OM 8325 OM OM1 8325 -0.550000 15.99940
8326 OM 8326 OM OM1 8326 -0.550000 15.99940
8327 OM 8327 OM OM1 8327 -0.550000 15.99940
8328 OM 8328 OM OM1 8328 -0.550000 15.99940
8329 OM 8329 OM OM1 8329 -0.550000 15.99940
8330 OM 8330 OM OM1 8330 -0.550000 15.99940
8331 OM 8331 OM OM1 8331 -0.550000 15.99940
8332 OM 8332 OM OM1 8332 -0.550000 15.99940
8333 OM 8333 OM OM1 8333 -0.550000 15.99940
8334 OM 8334 OM OM1 8334 -0.550000 15.99940
8335 OM 8335 OM OM1 8335 -0.550000 15.99940
8336 OM 8336 OM OM1 8336 -0.550000 15.99940
8337 OM 8337 OM OM1 8337 -0.550000 15.99940
8338 OM 8338 OM OM1 8338 -0.550000 15.99940
8339 OM 8339 OM OM1 8339 -0.550000 15.99940
8340 OM 8340 OM OM1 8340 -0.550000 15.99940
8341 OM 8341 OM OM1 8341 -0.550000 15.99940
8342 OM 8342 OM OM1 8342 -0.550000 15.99940
8343 OM 8343 OM OM1 8343 -0.550000 15.99940
8344 OM 8344 OM OM1 8344 -0.550000 15.99940
8345 OM 8345 OM OM1 8345 -0.550000 15.99940
8346 OM 8346 OM OM1 8346 -0.550000 15.99940
8347 OM 8347 OM OM1 8347 -0.550000 15.99940
8348 OM 8348 OM OM1 8348 -0.550000 15.99940
8349 OM 8349 OM OM1 8349 -0.550000 15.99940
8350 OM 8350 OM OM1 8350 -0.550000 15.99940
8351 OM 8351 OM OM1 8351 -0.550000 15.99940
8352 OM 8352 OM OM1 8352 -0.550000 15.99940
8353 OM 8353 OM OM1 8353 -0.550000 15.99940
8354 OM 8354 OM OM1 8354 -0.550000 15.99940
8355 OM 8355 OM OM1 8355 -0.550000 15.99940
8356 OM 8356 OM OM1 8356 -0.550000 15.99940
8357 OM 8357 OM OM1 8357 -0.550000 15.99940
8358 OM 8358 OM OM1 8358 -0.550000 15.99940
8359 OM 8359 OM OM1 8359 -0.550000 15.99940
8360 OM 8360 OM OM1 8360 -0.550000 15.99940
8361 OM 8361 OM OM1 8361 -0.550000 15.99940
8362 OM 8362 OM OM1 8362 -0.550000 15.99940
8363 OM 8363 OM OM1 8363 -0.550000 15.99940
8364 OM 8364 OM OM1 8364 -0.550000 15.99940
8365 OM 8365 OM OM1 8365 -0.550000 15.99940
8366 OM 8366 OM OM1 8366 -0.550000 15.99940
8367 OM 8367 OM OM1 8367 -0.550000 15.99940
8368 OM 8368 OM OM1 8368 -0.550000 15.99940
8369 OM 8369 OM OM1 8369 -0.550000 15.99940
8370 OM 8370 OM OM1 8370 -0.550000 15.99940
8371 OM 8371 OM OM1 8371 -0.550000 15.99940
8372 OM 8372 OM OM1 8372 -0.550000 15.99940
8373 OM 8373 OM OM1 8373 -0.550000 15.99940
8374 OM 8374 OM OM1 8374 -0.550000 15.99940
8375 OM 8375 OM OM1 8375 -0.550000 15.99940
8376 OM 8376 OM OM1 8376 -0.550000 15.99940
8377 OM 8377 OM OM1 8377 -0.550000 15.99940
8378 OM 8378 OM OM1 8378 -0.550000 15.99940
8379 OM 8379 OM OM1 8379 -0.550000 15.99940
8380 OM 8380 OM OM1 8380 -0.550000 15.99940
8381 OM 8381 OM OM1 8381 -0.550000 15.99940
8382 OM 8382 OM OM1 8382 -0.550000 15.99940
8383 OM 8383 OM OM1 8383 -0.550000 15.99940
8384 OM 8384 OM OM1 8384 -0.550000 15.99940
8385 OM 8385 OM OM1 8385 -0.550000 15.99940
8386 OM 8386 OM OM1 8386 -0.550000 15.99940
8387 OM 8387 OM OM1 8387 -0.550000 15.99940
8388 OM 8388 OM OM1 8388 -0.550000 15.99940
8389 OM 8389 OM OM1 8389 -0.550000 15.99940
8390 OM 8390 OM OM1 8390 -0.550000 15.99940
8391 OM 8391 OM OM1 8391 -0.550000 15.99940
8392 OM 8392 OM OM1 8392 -0.550000 15.99940
8393 OM 8393 OM OM1 8393 -0.550000 15.99940
8394 OM 8394 OM OM1 8394 -0.550000 15.99940
8395 OM 8395 OM OM1 8395 -0.550000 15.99940
8396 OM 8396 OM OM1 8396 -0.550000 15.99940
8397 OM 8397 OM OM1 8397 -0.550000 15.99940
8398 OM 8398 OM OM1 8398 -0.550000 15.99940
8399 OM 8399 OM OM1 8399 -0.550000 15.99940
8400 OM 8400 OM OM1 8400 -0.550000 15.99940
8401 OM 8401 OM OM1 8401 -0.550000 15.99940
8402 OM 8402 OM OM1 8402 -0.550000 15.99940
8403 OM 8403 OM OM1 8403 -0.550000 15.99940
8404 OM 8404 OM OM1 8404 -0.550000 15.99940
8405 OM 8405 OM OM1 8405 -0.550000 15.99940
8406 OM 8406 OM OM1 8406 -0.550000 15.99940
8407 OM 8407 OM OM1 8407 -0.550000 15.99940
8408 OM 8408 OM OM1 8408 -0.550000 15.99940
8409 OM 8409 OM OM1 8409 -0.550000 15.99940
8410 OM 8410 OM OM1 8410 -0.550000 15.99940
8411 OM 8411 OM OM1 8411 -0.550000 15.99940
8412 OM 8412 OM OM1 8412 -0.550000 15.99940
8413 OM 8413 OM OM1 8413 -0.550000 15.99940
8414 OM 8414 OM OM1 8414 -0.550000 15.99940
8415 OM 8415 OM OM1 8415 -0.550000 15.99940
8416 OM 8416 OM OM1 8416 -0.550000 15.99940
8417 OM 8417 OM OM1 8417 -0.550000 15.99940
8418 OM 8418 OM OM1 8418 -0.550000 15.99940
8419 OM 8419 OM OM1 8419 -0.550000 15.99940
8420 OM 8420 OM OM1 8420 -0.550000 15.99940
8421 OM 8421 OM OM1 8421 -0.550000 15.99940
8422 OM 8422 OM OM1 8422 -0.550000 15.99940
8423 OM 8423 OM OM1 8423 -0.550000 15.99940
8424 OM 8424 OM OM1 8424 -0.550000 15.99940
8425 OM 8425 OM OM1 8425 -0.550000 15.99940
8426 OM 8426 OM OM1 8426 -0.550000 15.99940
8427 OM 8427 OM OM1 8427 -0.550000 15.99940
8428 OM 8428 OM OM1 8428 -0.550000 15.99940
8429 OM 8429 OM OM1 8429 -0.550000 15.99940
8430 OM 8430 OM OM1 8430 -0.550000 15.99940
8431 OM 8431 OM OM1 8431 -0.550000 15.99940
8432 OM 8432 OM OM1 8432 -0.550000 15.99940
8433 OM 8433 OM OM1 8433 -0.550000 15.99940
8434 OM 8434 OM OM1 8434 -0.550000 15.99940
8435 OM 8435 OM OM1 8435 -0.550000 15.99940
8436 OM 8436 OM OM1 8436 -0.550000 15.99940
8437 OM 8437 OM OM1 8437 -0.550000 15.99940
8438 OM 8438 OM OM1 8438 -0.550000 15.99940
8439 OM 8439 OM OM1 8439 -0.550000 15.99940
8440 OM 8440 OM OM1 8440 -0.550000 15.99940
8441 OM 8441 OM OM1 8441 -0.550000 15.99940
8442 OM 8442 OM OM1 8442 -0.550000 15.99940
8443 OM 8443 OM OM1 8443 -0.550000 15.99940
8444 OM 8444 OM OM1 8444 -0.550000 15.99940
8445 OM 8445 OM OM1 8445 -0.550000 15.99940
8446 OM 8446 OM OM1 8446 -0.550000 15.99940
8447 OM 8447 OM OM1 8447 -0.550000 15.99940
8448 OM 8448 OM OM1 8448 -0.550000 15.99940
8449 OM 8449 OM OM1 8449 -0.550000 15.99940
8450 OM 8450 OM OM1 8450 -0.550000 15.99940
8451 OM 8451 OM OM1 8451 -0.550000 15.99940
8452 OM 8452 OM OM1 8452 -0.550000 15.99940
8453 OM 8453 OM OM1 8453 -0.550000 15.99940
8454 OM 8454 OM OM1 8454 -0.550000 15.99940
8455 OM 8455 OM OM1 8455 -0.550000 15.99940
8456 OM 8456 OM OM1 8456 -0.550000 15.99940
8457 OM 8457 OM OM1 8457 -0.550000 15.99940
8458 OM 8458 OM OM1 8458 -0.550000 15.99940
8459 OM 8459 OM OM1 8459 -0.550000 15.99940
8460 OM 8460 OM OM1 8460 -0.550000 15.99940
8461 OM 8461 OM OM1 8461 -0.550000 15.99940
8462 OM 8462 OM OM1 8462 -0.550000 15.99940
8463 OM 8463 OM OM1 8463 -0.550000 15.99940
8464 OM 8464 OM OM1 8464 -0.550000 15.99940
8465 OM 8465 OM OM1 8465 -0.550000 15.99940
8466 OM 8466 OM OM1 8466 -0.550000 15.99940
8467 OM 8467 OM OM1 8467 -0.550000 15.99940
8468 OM 8468 OM OM1 8468 -0.550000 15.99940
8469 OM 8469 OM OM1 8469 -0.550000 15.99940
8470 OM 8470 OM OM1 8470 -0.550000 15.99940
8471 OM 8471 OM OM1 8471 -0.550000 15.99940
8472 OM 8472 OM OM1 8472 -0.550000 15.99940
8473 OM 8473 OM OM1 8473 -0.550000 15.99940
8474 OM 8474 OM OM1 8474 -0.550000 15.99940
8475 OM 8475 OM OM1 8475 -0.550000 15.99940
8476 OM 8476 OM OM1 8476 -0.550000 15.99940
8477 OM 8477 OM OM1 8477 -0.550000 15.99940
8478 OM 8478 OM OM1 8478 -0.550000 15.99940
8479 OM 8479 OM OM1 8479 -0.550000 15.99940
8480 OM 8480 OM OM1 8480 -0.550000 15.99940
8481 OM 8481 OM OM1 8481 -0.550000 15.99940
8482 OM 8482 OM OM1 8482 -0.550000 15.99940
8483 OM 8483 OM OM1 8483 -0.550000 15.99940
8484 OM 8484 OM OM1 8484 -0.550000 15.99940
8485 OM 8485 OM OM1 8485 -0.550000 15.99940
8486 OM 8486 OM OM1 8486 -0.550000 15.99940
8487 OM 8487 OM OM1 8487 -0.550000 15.99940
8488 OM 8488 OM OM1 8488 -0.550000 15.99940
8489 OM 8489 OM OM1 8489 -0.550000 15.99940
8490 OM 8490 OM OM1 8490 -0.550000 15.99940
8491 OM 8491 OM OM1 8491 -0.550000 15.99940
8492 OM 8492 OM OM1 8492 -0.550000 15.99940
8493 OM 8493 OM OM1 8493 -0.550000 15.99940
8494 OM 8494 OM OM1 8494 -0.550000 15.99940
8495 OM 8495 OM OM1 8495 -0.550000 15.99940
8496 OM 8496 OM OM1 8496 -0.550000 15.99940
8497 OM 8497 OM OM1 8497 -0.550000 15.99940
8498 OM 8498 OM OM1 8498 -0.550000 15.99940
8499 OM 8499 OM OM1 8499 -0.550000 15.99940
8500 OM 8500 OM OM1 8500 -0.550000 15.99940
8501 OM 8501 OM OM1 8501 -0.550000 15.99940
8502 OM 8502 OM OM1 8502 -0.550000 15.99940
8503 OM 8503 OM OM1 8503 -0.550000 15.99940
8504 OM 8504 OM OM1 8504 -0.550000 15.99940
8505 OM 8505 OM OM1 8505 -0.550000 15.99940
8506 OM 8506 OM OM1 8506 -0.550000 15.99940
8507 OM 8507 OM OM1 8507 -0.550000 15.99940
8508 OM 8508 OM OM1 8508 -0.550000 15.99940
8509 OM 8509 OM OM1 8509 -0.550000 15.99940
8510 OM 8510 OM OM1 8510 -0.550000 15.99940
8511 OM 8511 OM OM1 8511 -0.550000 15.99940
8512 OM 8512 OM OM1 8512 -0.550000 15.99940
8513 OM 8513 OM OM1 8513 -0.550000 15.99940
8514 OM 8514 OM OM1 8514 -0.550000 15.99940
8515 OM 8515 OM OM1 8515 -0.550000 15.99940
8516 OM 8516 OM OM1 8516 -0.550000 15.99940
8517 OM 8517 OM OM1 8517 -0.550000 15.99940
8518 OM 8518 OM OM1 8518 -0.550000 15.99940
8519 OM 8519 OM OM1 8519 -0.550000 15.99940
8520 OM 8520 OM OM1 8520 -0.550000 15.99940
8521 OM 8521 OM OM1 8521 -0.550000 15.99940
8522 OM 8522 OM OM1 8522 -0.550000 15.99940
8523 OM 8523 OM OM1 8523 -0.550000 15.99940
8524 OM 8524 OM OM1 8524 -0.550000 15.99940
8525 OM 8525 OM OM1 8525 -0.550000 15.99940
8526 OM 8526 OM OM1 8526 -0.550000 15.99940
8527 OM 8527 OM OM1 8527 -0.550000 15.99940
8528 OM 8528 OM OM1 8528 -0.550000 15.99940
8529 OM 8529 OM OM1 8529 -0.550000 15.99940
8530 OM 8530 OM OM1 8530 -0.550000 15.99940
8531 OM 8531 OM OM1 8531 -0.550000 15.99940
8532 OM 8532 OM OM1 8532 -0.550000 15.99940
8533 OM 8533 OM OM1 8533 -0.550000 15.99940
8534 OM 8534 OM OM1 8534 -0.550000 15.99940
8535 OM 8535 OM OM1 8535 -0.550000 15.99940
8536 OM 8536 OM OM1 8536 -0.550000 15.99940
8537 OM 8537 OM OM1 8537 -0.550000 15.99940
8538 OM 8538 OM OM1 8538 -0.550000 15.99940
8539 OM 8539 OM OM1 8539 -0.550000 15.99940
8540 OM 8540 OM OM1 8540 -0.550000 15.99940
8541 OM 8541 OM OM1 8541 -0.550000 15.99940
8542 OM 8542 OM OM1 8542 -0.550000 15.99940
8543 OM 8543 OM OM1 8543 -0.550000 15.99940
8544 OM 8544 OM OM1 8544 -0.550000 15.99940
8545 OM 8545 OM OM1 8545 -0.550000 15.99940
8546 OM 8546 OM OM1 8546 -0.550000 15.99940
8547 OM 8547 OM OM1 8547 -0.550000 15.99940
8548 OM 8548 OM OM1 8548 -0.550000 15.99940
8549 OM 8549 OM OM1 8549 -0.550000 15.99940
8550 OM 8550 OM OM1 8550 -0.550000 15.99940
8551 OM 8551 OM OM1 8551 -0.550000 15.99940
8552 OM 8552 OM OM1 8552 -0.550000 15.99940
8553 OM 8553 OM OM1 8553 -0.550000 15.99940
8554 OM 8554 OM OM1 8554 -0.550000 15.99940
8555 OM 8555 OM OM1 8555 -0.550000 15.99940
8556 OM 8556 OM OM1 8556 -0.550000 15.99940
8557 OM 8557 OM OM1 8557 -0.550000 15.99940
8558 OM 8558 OM OM1 8558 -0.550000 15.99940
8559 OM 8559 OM OM1 8559 -0.550000 15.99940
8560 OM 8560 OM OM1 8560 -0.550000 15.99940
8561 OM 8561 OM OM1 8561 -0.550000 15.99940
8562 OM 8562 OM OM1 8562 -0.550000 15.99940
8563 OM 8563 OM OM1 8563 -0.550000 15.99940
8564 OM 8564 OM OM1 8564 -0.550000 15.99940
8565 OM 8565 OM OM1 8565 -0.550000 15.99940
8566 OM 8566 OM OM1 8566 -0.550000 15.99940
8567 OM 8567 OM OM1 8567 -0.550000 15.99940
8568 OM 8568 OM OM1 8568 -0.550000 15.99940
8569 OM 8569 OM OM1 8569 -0.550000 15.99940
8570 OM 8570 OM OM1 8570 -0.550000 15.99940
8571 OM 8571 OM OM1 8571 -0.550000 15.99940
8572 OM 8572 OM OM1 8572 -0.550000 15.99940
8573 OM 8573 OM OM1 8573 -0.550000 15.99940
8574 OM 8574 OM OM1 8574 -0.550000 15.99940
8575 OM 8575 OM OM1 8575 -0.550000 15.99940
8576 OM 8576 OM OM1 8576 -0.550000 15.99940
8577 OM 8577 OM OM1 8577 -0.550000 15.99940
8578 OM 8578 OM OM1 8578 -0.550000 15.99940
8579 OM 8579 OM OM1 8579 -0.550000 15.99940
8580 OM 8580 OM OM1 8580 -0.550000 15.99940
8581 OM 8581 OM OM1 8581 -0.550000 15.99940
8582 OM 8582 OM OM1 8582 -0.550000 15.99940
8583 OM 8583 OM OM1 8583 -0.550000 15.99940
8584 OM 8584 OM OM1 8584 -0.550000 15.99940
8585 OM 8585 OM OM1 8585 -0.550000 15.99940
8586 OM 8586 OM OM1 8586 -0.550000 15.99940
8587 OM 8587 OM OM1 8587 -0.550000 15.99940
8588 OM 8588 OM OM1 8588 -0.550000 15.99940
8589 OM 8589 OM OM1 8589 -0.550000 15.99940
8590 OM 8590 OM OM1 8590 -0.550000 15.99940
8591 OM 8591 OM OM1 8591 -0.550000 15.99940
8592 OM 8592 OM OM1 8592 -0.550000 15.99940
8593 OM 8593 OM OM1 8593 -0.550000 15.99940
8594 OM 8594 OM OM1 8594 -0.550000 15.99940
8595 OM 8595 OM OM1 8595 -0.550000 15.99940
8596 OM 8596 OM OM1 8596 -0.550000 15.99940
8597 OM 8597 OM OM1 8597 -0.550000 15.99940
8598 OM 8598 OM OM1 8598 -0.550000 15.99940
8599 OM 8599 OM OM1 8599 -0.550000 15.99940
8600 OM 8600 OM OM1 8600 -0.550000 15.99940
8601 OM 8601 OM OM1 8601 -0.550000 15.99940
8602 OM 8602 OM OM1 8602 -0.550000 15.99940
8603 OM 8603 OM OM1 8603 -0.550000 15.99940
8604 OM 8604 OM OM1 8604 -0.550000 15.99940
8605 OM 8605 OM OM1 8605 -0.550000 15.99940
8606 OM 8606 OM OM1 8606 -0.550000 15.99940
8607 OM 8607 OM OM1 8607 -0.550000 15.99940
8608 OM 8608 OM OM1 8608 -0.550000 15.99940
8609 OM 8609 OM OM1 8609 -0.550000 15.99940
8610 OM 8610 OM OM1 8610 -0.550000 15.99940
8611 OM 8611 OM OM1 8611 -0.550000 15.99940
8612 OM 8612 OM OM1 8612 -0.550000 15.99940
8613 OM 8613 OM OM1 8613 -0.550000 15.99940
8614 OM 8614 OM OM1 8614 -0.550000 15.99940
8615 OM 8615 OM OM1 8615 -0.550000 15.99940
8616 OM 8616 OM OM1 8616 -0.550000 15.99940
8617 OM 8617 OM OM1 8617 -0.550000 15.99940
8618 OM 8618 OM OM1 8618 -0.550000 15.99940
8619 OM 8619 OM OM1 8619 -0.550000 15.99940
8620 OM 8620 OM OM1 8620 -0.550000 15.99940
8621 OM 8621 OM OM1 8621 -0.550000 15.99940
8622 OM 8622 OM OM1 8622 -0.550000 15.99940
8623 OM 8623 OM OM1 8623 -0.550000 15.99940
8624 OM 8624 OM OM1 8624 -0.550000 15.99940
8625 OM 8625 OM OM1 8625 -0.550000 15.99940
8626 OM 8626 OM OM1 8626 -0.550000 15.99940
8627 OM 8627 OM OM1 8627 -0.550000 15.99940
8628 OM 8628 OM OM1 8628 -0.550000 15.99940
8629 OM 8629 OM OM1 8629 -0.550000 15.99940
8630 OM 8630 OM OM1 8630 -0.550000 15.99940
8631 OM 8631 OM OM1 8631 -0.550000 15.99940
8632 OM 8632 OM OM1 8632 -0.550000 15.99940
8633 OM 8633 OM OM1 8633 -0.550000 15.99940
8634 OM 8634 OM OM1 8634 -0.550000 15.99940
8635 OM 8635 OM OM1 8635 -0.550000 15.99940
8636 OM 8636 OM OM1 8636 -0.550000 15.99940
8637 OM 8637 OM OM1 8637 -0.550000 15.99940
8638 OM 8638 OM OM1 8638 -0.550000 15.99940
8639 OM 8639 OM OM1 8639 -0.550000 15.99940
8640 OM 8640 OM OM1 8640 -0.550000 15.99940
8641 OM 8641 OM OM1 8641 -0.550000 15.99940
8642 OM 8642 OM OM1 8642 -0.550000 15.99940
8643 OM 8643 OM OM1 8643 -0.550000 15.99940
8644 OM 8644 OM OM1 8644 -0.550000 15.99940
8645 OM 8645 OM OM1 8645 -0.550000 15.99940
8646 OM 8646 OM OM1 8646 -0.550000 15.99940
8647 OM 8647 OM OM1 8647 -0.550000 15.99940
8648 OM 8648 OM OM1 8648 -0.550000 15.99940
8649 OM 8649 OM OM1 8649 -0.550000 15.99940
8650 OM 8650 OM OM1 8650 -0.550000 15.99940
8651 OM 8651 OM OM1 8651 -0.550000 15.99940
8652 OM 8652 OM OM1 8652 -0.550000 15.99940
8653 OM 8653 OM OM1 8653 -0.550000 15.99940
8654 OM 8654 OM OM1 8654 -0.550000 15.99940
8655 OM 8655 OM OM1 8655 -0.550000 15.99940
8656 OM 8656 OM OM1 8656 -0.550000 15.99940
8657 OM 8657 OM OM1 8657 -0.550000 15.99940
8658 OM 8658 OM OM1 8658 -0.550000 15.99940
8659 OM 8659 OM OM1 8659 -0.550000 15.99940
8660 OM 8660 OM OM1 8660 -0.550000 15.99940
8661 OM 8661 OM OM1 8661 -0.550000 15.99940
8662 OM 8662 OM OM1 8662 -0.550000 15.99940
8663 OM 8663 OM OM1 8663 -0.550000 15.99940
8664 OM 8664 OM OM1 8664 -0.550000 15.99940
8665 OM 8665 OM OM1 8665 -0.550000 15.99940
8666 OM 8666 OM OM1 8666 -0.550000 15.99940
8667 OM 8667 OM OM1 8667 -0.550000 15.99940
8668 OM 8668 OM OM1 8668 -0.550000 15.99940
8669 OM 8669 OM OM1 8669 -0.550000 15.99940
8670 OM 8670 OM OM1 8670 -0.550000 15.99940
8671 OM 8671 OM OM1 8671 -0.550000 15.99940
8672 OM 8672 OM OM1 8672 -0.550000 15.99940
8673 OM 8673 OM OM1 8673 -0.550000 15.99940
8674 OM 8674 OM OM1 8674 -0.550000 15.99940
8675 OM 8675 OM OM1 8675 -0.550000 15.99940
8676 OM 8676 OM OM1 8676 -0.550000 15.99940
8677 OM 8677 OM OM1 8677 -0.550000 15.99940
8678 OM 8678 OM OM1 8678 -0.550000 15.99940
8679 OM 8679 OM OM1 8679 -0.550000 15.99940
8680 OM 8680 OM OM1 8680 -0.550000 15.99940
8681 OM 8681 OM OM1 8681 -0.550000 15.99940
8682 OM 8682 OM OM1 8682 -0.550000 15.99940
8683 OM 8683 OM OM1 8683 -0.550000 15.99940
8684 OM 8684 OM OM1 8684 -0.550000 15.99940
8685 OM 8685 OM OM1 8685 -0.550000 15.99940
8686 OM 8686 OM OM1 8686 -0.550000 15.99940
8687 OM 8687 OM OM1 8687 -0.550000 15.99940
8688 OM 8688 OM OM1 8688 -0.550000 15.99940
8689 OM 8689 OM OM1 8689 -0.550000 15.99940
8690 OM 8690 OM OM1 8690 -0.550000 15.99940
8691 OM 8691 OM OM1 8691 -0.550000 15.99940
8692 OM 8692 OM OM1 8692 -0.550000 15.99940
8693 OM 8693 OM OM1 8693 -0.550000 15.99940
8694 OM 8694 OM OM1 8694 -0.550000 15.99940
8695 OM 8695 OM OM1 8695 -0.550000 15.99940
8696 OM 8696 OM OM1 8696 -0.550000 15.99940
8697 OM 8697 OM OM1 8697 -0.550000 15.99940
8698 OM 8698 OM OM1 8698 -0.550000 15.99940
8699 OM 8699 OM OM1 8699 -0.550000 15.99940
8700 OM 8700 OM OM1 8700 -0.550000 15.99940
8701 OM 8701 OM OM1 8701 -0.550000 15.99940
8702 OM 8702 OM OM1 8702 -0.550000 15.99940
8703 OM 8703 OM OM1 8703 -0.550000 15.99940
8704 OM 8704 OM OM1 8704 -0.550000 15.99940
8705 OM 8705 OM OM1 8705 -0.550000 15.99940
8706 OM 8706 OM OM1 8706 -0.550000 15.99940
8707 OM 8707 OM OM1 8707 -0.550000 15.99940
8708 OM 8708 OM OM1 8708 -0.550000 15.99940
8709 OM 8709 OM OM1 8709 -0.550000 15.99940
8710 OM 8710 OM OM1 8710 -0.550000 15.99940
8711 OM 8711 OM OM1 8711 -0.550000 15.99940
8712 OM 8712 OM OM1 8712 -0.550000 15.99940
8713 OM 8713 OM OM1 8713 -0.550000 15.99940
8714 OM 8714 OM OM1 8714 -0.550000 15.99940
8715 OM 8715 OM OM1 8715 -0.550000 15.99940
8716 OM 8716 OM OM1 8716 -0.550000 15.99940
8717 OM 8717 OM OM1 8717 -0.550000 15.99940
8718 OM 8718 OM OM1 8718 -0.550000 15.99940
8719 OM 8719 OM OM1 8719 -0.550000 15.99940
8720 OM 8720 OM OM1 8720 -0.550000 15.99940
8721 OM 8721 OM OM1 8721 -0.550000 15.99940
8722 OM 8722 OM OM1 8722 -0.550000 15.99940
8723 OM 8723 OM OM1 8723 -0.550000 15.99940
8724 OM 8724 OM OM1 8724 -0.550000 15.99940
8725 OM 8725 OM OM1 8725 -0.550000 15.99940
8726 OM 8726 OM OM1 8726 -0.550000 15.99940
8727 OM 8727 OM OM1 8727 -0.550000 15.99940
8728 OM 8728 OM OM1 8728 -0.550000 15.99940
8729 OM 8729 OM OM1 8729 -0.550000 15.99940
8730 OM 8730 OM OM1 8730 -0.550000 15.99940
8731 OM 8731 OM OM1 8731 -0.550000 15.99940
8732 OM 8732 OM OM1 8732 -0.550000 15.99940
8733 OM 8733 OM OM1 8733 -0.550000 15.99940
8734 OM 8734 OM OM1 8734 -0.550000 15.99940
8735 OM 8735 OM OM1 8735 -0.550000 15.99940
8736 OM 8736 OM OM1 8736 -0.550000 15.99940
8737 OM 8737 OM OM1 8737 -0.550000 15.99940
8738 OM 8738 OM OM1 8738 -0.550000 15.99940
8739 OM 8739 OM OM1 8739 -0.550000 15.99940
8740 OM 8740 OM OM1 8740 -0.550000 15.99940
8741 OM 8741 OM OM1 8741 -0.550000 15.99940
8742 OM 8742 OM OM1 8742 -0.550000 15.99940
8743 OM 8743 OM OM1 8743 -0.550000 15.99940
8744 OM 8744 OM OM1 8744 -0.550000 15.99940
8745 OM 8745 OM OM1 8745 -0.550000 15.99940
8746 OM 8746 OM OM1 8746 -0.550000 15.99940
8747 OM 8747 OM OM1 8747 -0.550000 15.99940
8748 OM 8748 OM OM1 8748 -0.550000 15.99940
8749 OM 8749 OM OM1 8749 -0.550000 15.99940
8750 OM 8750 OM OM1 8750 -0.550000 15.99940
8751 OM 8751 OM OM1 8751 -0.550000 15.99940
8752 OM 8752 OM OM1 8752 -0.550000 15.99940
8753 OM 8753 OM OM1 8753 -0.550000 15.99940
8754 OM 8754 OM OM1 8754 -0.550000 15.99940
8755 OM 8755 OM OM1 8755 -0.550000 15.99940
8756 OM 8756 OM OM1 8756 -0.550000 15.99940
8757 OM 8757 OM OM1 8757 -0.550000 15.99940
8758 OM 8758 OM OM1 8758 -0.550000 15.99940
8759 OM 8759 OM OM1 8759 -0.550000 15.99940
8760 OM 8760 OM OM1 8760 -0.550000 15.99940
8761 OM 8761 OM OM1 8761 -0.550000 15.99940
8762 OM 8762 OM OM1 8762 -0.550000 15.99940
8763 OM 8763 OM OM1 8763 -0.550000 15.99940
8764 OM 8764 OM OM1 8764 -0.550000 15.99940
8765 OM 8765 OM OM1 8765 -0.550000 15.99940
8766 OM 8766 OM OM1 8766 -0.550000 15.99940
8767 OM 8767 OM OM1 8767 -0.550000 15.99940
8768 OM 8768 OM OM1 8768 -0.550000 15.99940
8769 OM 8769 OM OM1 8769 -0.550000 15.99940
8770 OM 8770 OM OM1 8770 -0.550000 15.99940
8771 OM 8771 OM OM1 8771 -0.550000 15.99940
8772 OM 8772 OM OM1 8772 -0.550000 15.99940
8773 OM 8773 OM OM1 8773 -0.550000 15.99940
8774 OM 8774 OM OM1 8774 -0.550000 15.99940
8775 OM 8775 OM OM1 8775 -0.550000 15.99940
8776 OM 8776 OM OM1 8776 -0.550000 15.99940
8777 OM 8777 OM OM1 8777 -0.550000 15.99940
8778 OM 8778 OM OM1 8778 -0.550000 15.99940
8779 OM 8779 OM OM1 8779 -0.550000 15.99940
8780 OM 8780 OM OM1 8780 -0.550000 15.99940
8781 OM 8781 OM OM1 8781 -0.550000 15.99940
8782 OM 8782 OM OM1 8782 -0.550000 15.99940
8783 OM 8783 OM OM1 8783 -0.550000 15.99940
8784 OM 8784 OM OM1 8784 -0.550000 15.99940
8785 OM 8785 OM OM1 8785 -0.550000 15.99940
8786 OM 8786 OM OM1 8786 -0.550000 15.99940
8787 OM 8787 OM OM1 8787 -0.550000 15.99940
8788 OM 8788 OM OM1 8788 -0.550000 15.99940
8789 OM 8789 OM OM1 8789 -0.550000 15.99940
8790 OM 8790 OM OM1 8790 -0.550000 15.99940
8791 OM 8791 OM OM1 8791 -0.550000 15.99940
8792 OM 8792 OM OM1 8792 -0.550000 15.99940
8793 OM 8793 OM OM1 8793 -0.550000 15.99940
8794 OM 8794 OM OM1 8794 -0.550000 15.99940
8795 OM 8795 OM OM1 8795 -0.550000 15.99940
8796 OM 8796 OM OM1 8796 -0.550000 15.99940
8797 OM 8797 OM OM1 8797 -0.550000 15.99940
8798 OM 8798 OM OM1 8798 -0.550000 15.99940
8799 OM 8799 OM OM1 8799 -0.550000 15.99940
8800 OM 8800 OM OM1 8800 -0.550000 15.99940
8801 OM 8801 OM OM1 8801 -0.550000 15.99940
8802 OM 8802 OM OM1 8802 -0.550000 15.99940
8803 OM 8803 OM OM1 8803 -0.550000 15.99940
8804 OM 8804 OM OM1 8804 -0.550000 15.99940
8805 OM 8805 OM OM1 8805 -0.550000 15.99940
8806 OM 8806 OM OM1 8806 -0.550000 15.99940
8807 OM 8807 OM OM1 8807 -0.550000 15.99940
8808 OM 8808 OM OM1 8808 -0.550000 15.99940
8809 OM 8809 OM OM1 8809 -0.550000 15.99940
8810 OM 8810 OM OM1 8810 -0.550000 15.99940
8811 OM 8811 OM OM1 8811 -0.550000 15.99940
8812 OM 8812 OM OM1 8812 -0.550000 15.99940
8813 OM 8813 OM OM1 8813 -0.550000 15.99940
8814 OM 8814 OM OM1 8814 -0.550000 15.99940
8815 OM 8815 OM OM1 8815 -0.550000 15.99940
8816 OM 8816 OM OM1 8816 -0.550000 15.99940
8817 OM 8817 OM OM1 8817 -0.550000 15.99940
8818 OM 8818 OM OM1 8818 -0.550000 15.99940
8819 OM 8819 OM OM1 8819 -0.550000 15.99940
8820 OM 8820 OM OM1 8820 -0.550000 15.99940
8821 OM 8821 OM OM1 8821 -0.550000 15.99940
8822 OM 8822 OM OM1 8822 -0.550000 15.99940
8823 OM 8823 OM OM1 8823 -0.550000 15.99940
8824 OM 8824 OM OM1 8824 -0.550000 15.99940
8825 OM 8825 OM OM1 8825 -0.550000 15.99940
8826 OM 8826 OM OM1 8826 -0.550000 15.99940
8827 OM 8827 OM OM1 8827 -0.550000 15.99940
8828 OM 8828 OM OM1 8828 -0.550000 15.99940
8829 OM 8829 OM OM1 8829 -0.550000 15.99940
8830 OM 8830 OM OM1 8830 -0.550000 15.99940
8831 OM 8831 OM OM1 8831 -0.550000 15.99940
8832 OM 8832 OM OM1 8832 -0.550000 15.99940
8833 OM 8833 OM OM1 8833 -0.550000 15.99940
8834 OM 8834 OM OM1 8834 -0.550000 15.99940
8835 OM 8835 OM OM1 8835 -0.550000 15.99940
8836 OM 8836 OM OM1 8836 -0.550000 15.99940
8837 OM 8837 OM OM1 8837 -0.550000 15.99940
8838 OM 8838 OM OM1 8838 -0.550000 15.99940
8839 OM 8839 OM OM1 8839 -0.550000 15.99940
8840 OM 8840 OM OM1 8840 -0.550000 15.99940
8841 OM 8841 OM OM1 8841 -0.550000 15.99940
8842 OM 8842 OM OM1 8842 -0.550000 15.99940
8843 OM 8843 OM OM1 8843 -0.550000 15.99940
8844 OM 8844 OM OM1 8844 -0.550000 15.99940
8845 OM 8845 OM OM1 8845 -0.550000 15.99940
8846 OM 8846 OM OM1 8846 -0.550000 15.99940
8847 OM 8847 OM OM1 8847 -0.550000 15.99940
8848 OM 8848 OM OM1 8848 -0.550000 15.99940
8849 OM 8849 OM OM1 8849 -0.550000 15.99940
8850 OM 8850 OM OM1 8850 -0.550000 15.99940
8851 OM 8851 OM OM1 8851 -0.550000 15.99940
8852 OM 8852 OM OM1 8852 -0.550000 15.99940
8853 OM 8853 OM OM1 8853 -0.550000 15.99940
8854 OM 8854 OM OM1 8854 -0.550000 15.99940
8855 OM 8855 OM OM1 8855 -0.550000 15.99940
8856 OM 8856 OM OM1 8856 -0.550000 15.99940
8857 OM 8857 OM OM1 8857 -0.550000 15.99940
8858 OM 8858 OM OM1 8858 -0.550000 15.99940
8859 OM 8859 OM OM1 8859 -0.550000 15.99940
8860 OM 8860 OM OM1 8860 -0.550000 15.99940
8861 OM 8861 OM OM1 8861 -0.550000 15.99940
8862 OM 8862 OM OM1 8862 -0.550000 15.99940
8863 OM 8863 OM OM1 8863 -0.550000 15.99940
8864 OM 8864 OM OM1 8864 -0.550000 15.99940
8865 OM 8865 OM OM1 8865 -0.550000 15.99940
8866 OM 8866 OM OM1 8866 -0.550000 15.99940
8867 OM 8867 OM OM1 8867 -0.550000 15.99940
8868 OM 8868 OM OM1 8868 -0.550000 15.99940
8869 OM 8869 OM OM1 8869 -0.550000 15.99940
8870 OM 8870 OM OM1 8870 -0.550000 15.99940
8871 OM 8871 OM OM1 8871 -0.550000 15.99940
8872 OM 8872 OM OM1 8872 -0.550000 15.99940
8873 OM 8873 OM OM1 8873 -0.550000 15.99940
8874 OM 8874 OM OM1 8874 -0.550000 15.99940
8875 OM 8875 OM OM1 8875 -0.550000 15.99940
8876 OM 8876 OM OM1 8876 -0.550000 15.99940
8877 OM 8877 OM OM1 8877 -0.550000 15.99940
8878 OM 8878 OM OM1 8878 -0.550000 15.99940
8879 OM 8879 OM OM1 8879 -0.550000 15.99940
8880 OM 8880 OM OM1 8880 -0.550000 15.99940
8881 OM 8881 OM OM1 8881 -0.550000 15.99940
8882 OM 8882 OM OM1 8882 -0.550000 15.99940
8883 OM 8883 OM OM1 8883 -0.550000 15.99940
8884 OM 8884 OM OM1 8884 -0.550000 15.99940
8885 OM 8885 OM OM1 8885 -0.550000 15.99940
8886 OM 8886 OM OM1 8886 -0.550000 15.99940
8887 OM 8887 OM OM1 8887 -0.550000 15.99940
8888 OM 8888 OM OM1 8888 -0.550000 15.99940
8889 OM 8889 OM OM1 8889 -0.550000 15.99940
8890 OM 8890 OM OM1 8890 -0.550000 15.99940
8891 OM 8891 OM OM1 8891 -0.550000 15.99940
8892 OM 8892 OM OM1 8892 -0.550000 15.99940
8893 OM 8893 OM OM1 8893 -0.550000 15.99940
8894 OM 8894 OM OM1 8894 -0.550000 15.99940
8895 OM 8895 OM OM1 8895 -0.550000 15.99940
8896 OM 8896 OM OM1 8896 -0.550000 15.99940
8897 OM 8897 OM OM1 8897 -0.550000 15.99940
8898 OM 8898 OM OM1 8898 -0.550000 15.99940
8899 OM 8899 OM OM1 8899 -0.550000 15.99940
8900 OM 8900 OM OM1 8900 -0.550000 15.99940
8901 OM 8901 OM OM1 8901 -0.550000 15.99940
8902 OM 8902 OM OM1 8902 -0.550000 15.99940
8903 OM 8903 OM OM1 8903 -0.550000 15.99940
8904 OM 8904 OM OM1 8904 -0.550000 15.99940
8905 OM 8905 OM OM1 8905 -0.550000 15.99940
8906 OM 8906 OM OM1 8906 -0.550000 15.99940
8907 OM 8907 OM OM1 8907 -0.550000 15.99940
8908 OM 8908 OM OM1 8908 -0.550000 15.99940
8909 OM 8909 OM OM1 8909 -0.550000 15.99940
8910 OM 8910 OM OM1 8910 -0.550000 15.99940
8911 OM 8911 OM OM1 8911 -0.550000 15.99940
8912 OM 8912 OM OM1 8912 -0.550000 15.99940
8913 OM 8913 OM OM1 8913 -0.550000 15.99940
8914 OM 8914 OM OM1 8914 -0.550000 15.99940
8915 OM 8915 OM OM1 8915 -0.550000 15.99940
8916 OM 8916 OM OM1 8916 -0.550000 15.99940
8917 OM 8917 OM OM1 8917 -0.550000 15.99940
8918 OM 8918 OM OM1 8918 -0.550000 15.99940
8919 OM 8919 OM OM1 8919 -0.550000 15.99940
8920 OM 8920 OM OM1 8920 -0.550000 15.99940
8921 OM 8921 OM OM1 8921 -0.550000 15.99940
8922 OM 8922 OM OM1 8922 -0.550000 15.99940
8923 OM 8923 OM OM1 8923 -0.550000 15.99940
8924 OM 8924 OM OM1 8924 -0.550000 15.99940
8925 OM 8925 OM OM1 8925 -0.550000 15.99940
8926 OM 8926 OM OM1 8926 -0.550000 15.99940
8927 OM 8927 OM OM1 8927 -0.550000 15.99940
8928 OM 8928 OM OM1 8928 -0.550000 15.99940
8929 OM 8929 OM OM1 8929 -0.550000 15.99940
8930 OM 8930 OM OM1 8930 -0.550000 15.99940
8931 OM 8931 OM OM1 8931 -0.550000 15.99940
8932 OM 8932 OM OM1 8932 -0.550000 15.99940
8933 OM 8933 OM OM1 8933 -0.550000 15.99940
8934 OM 8934 OM OM1 8934 -0.550000 15.99940
8935 OM 8935 OM OM1 8935 -0.550000 15.99940
8936 OM 8936 OM OM1 8936 -0.550000 15.99940
8937 OM 8937 OM OM1 8937 -0.550000 15.99940
8938 OM 8938 OM OM1 8938 -0.550000 15.99940
8939 OM 8939 OM OM1 8939 -0.550000 15.99940
8940 OM 8940 OM OM1 8940 -0.550000 15.99940
8941 OM 8941 OM OM1 8941 -0.550000 15.99940
8942 OM 8942 OM OM1 8942 -0.550000 15.99940
8943 OM 8943 OM OM1 8943 -0.550000 15.99940
8944 OM 8944 OM OM1 8944 -0.550000 15.99940
8945 OM 8945 OM OM1 8945 -0.550000 15.99940
8946 OM 8946 OM OM1 8946 -0.550000 15.99940
8947 OM 8947 OM OM1 8947 -0.550000 15.99940
8948 OM 8948 OM OM1 8948 -0.550000 15.99940
8949 OM 8949 OM OM1 8949 -0.550000 15.99940
8950 OM 8950 OM OM1 8950 -0.550000 15.99940
8951 OM 8951 OM OM1 8951 -0.550000 15.99940
8952 OM 8952 OM OM1 8952 -0.550000 15.99940
8953 OM 8953 OM OM1 8953 -0.550000 15.99940
8954 OM 8954 OM OM1 8954 -0.550000 15.99940
8955 OM 8955 OM OM1 8955 -0.550000 15.99940
8956 OM 8956 OM OM1 8956 -0.550000 15.99940
8957 OM 8957 OM OM1 8957 -0.550000 15.99940
8958 OM 8958 OM OM1 8958 -0.550000 15.99940
8959 OM 8959 OM OM1 8959 -0.550000 15.99940
8960 OM 8960 OM OM1 8960 -0.550000 15.99940
8961 OM 8961 OM OM1 8961 -0.550000 15.99940
8962 OM 8962 OM OM1 8962 -0.550000 15.99940
8963 OM 8963 OM OM1 8963 -0.550000 15.99940
8964 OM 8964 OM OM1 8964 -0.550000 15.99940
8965 OM 8965 OM OM1 8965 -0.550000 15.99940
8966 OM 8966 OM OM1 8966 -0.550000 15.99940
8967 OM 8967 OM OM1 8967 -0.550000 15.99940
8968 OM 8968 OM OM1 8968 -0.550000 15.99940
8969 OM 8969 OM OM1 8969 -0.550000 15.99940
8970 OM 8970 OM OM1 8970 -0.550000 15.99940
8971 OM 8971 OM OM1 8971 -0.550000 15.99940
8972 OM 8972 OM OM1 8972 -0.550000 15.99940
8973 OM 8973 OM OM1 8973 -0.550000 15.99940
8974 OM 8974 OM OM1 8974 -0.550000 15.99940
8975 OM 8975 OM OM1 8975 -0.550000 15.99940
8976 OM 8976 OM OM1 8976 -0.550000 15.99940
8977 OM 8977 OM OM1 8977 -0.550000 15.99940
8978 OM 8978 OM OM1 8978 -0.550000 15.99940
8979 OM 8979 OM OM1 8979 -0.550000 15.99940
8980 OM 8980 OM OM1 8980 -0.550000 15.99940
8981 OM 8981 OM OM1 8981 -0.550000 15.99940
8982 OM 8982 OM OM1 8982 -0.550000 15.99940
8983 OM 8983 OM OM1 8983 -0.550000 15.99940
8984 OM 8984 OM OM1 8984 -0.550000 15.99940
8985 OM 8985 OM OM1 8985 -0.550000 15.99940
8986 OM 8986 OM OM1 8986 -0.550000 15.99940
8987 OM 8987 OM OM1 8987 -0.550000 15.99940
8988 OM 8988 OM OM1 8988 -0.550000 15.99940
8989 OM 8989 OM OM1 8989 -0.550000 15.99940
8990 OM 8990 OM OM1 8990 -0.550000 15.99940
8991 OM 8991 OM OM1 8991 -0.550000 15.99940
8992 OM 8992 OM OM1 8992 -0.550000 15.99940
8993 OM 8993 OM OM1 8993 -0.550000 15.99940
8994 OM 8994 OM OM1 8994 -0.550000 15.99940
8995 OM 8995 OM OM1 8995 -0.550000 15.99940
8996 OM 8996 OM OM1 8996 -0.550000 15.99940
8997 OM 8997 OM OM1 8997 -0.550000 15.99940
8998 OM 8998 OM OM1 8998 -0.550000 15.99940
8999 OM 8999 OM OM1 8999 -0.550000 15.99940
9000 OM 9000 OM OM1 9000 -0.550000 15.99940
9001 OM 9001 OM OM1 9001 -0.550000 15.99940
9002 OM 9002 OM OM1 9002 -0.550000 15.99940
9003 OM 9003 OM OM1 9003 -0.550000 15.99940
9004 OM 9004 OM OM1 9004 -0.550000 15.99940
9005 OM 9005 OM OM1 9005 -0.550000 15.99940
9006 OM 9006 OM OM1 9006 -0.550000 15.99940
9007 OM 9007 OM OM1 9007 -0.550000 15.99940
9008 OM 9008 OM OM1 9008 -0.550000 15.99940
9009 OM 9009 OM OM1 9009 -0.550000 15.99940
9010 OM 9010 OM OM1 9010 -0.550000 15.99940
9011 OM 9011 OM OM1 9011 -0.550000 15.99940
9012 OM 9012 OM OM1 9012 -0.550000 15.99940
9013 OM 9013 OM OM1 9013 -0.550000 15.99940
9014 OM 9014 OM OM1 9014 -0.550000 15.99940
9015 OM 9015 OM OM1 9015 -0.550000 15.99940
9016 OM 9016 OM OM1 9016 -0.550000 15.99940
9017 OM 9017 OM OM1 9017 -0.550000 15.99940
9018 OM 9018 OM OM1 9018 -0.550000 15.99940
9019 OM 9019 OM OM1 9019 -0.550000 15.99940
9020 OM 9020 OM OM1 9020 -0.550000 15.99940
9021 OM 9021 OM OM1 9021 -0.550000 15.99940
9022 OM 9022 OM OM1 9022 -0.550000 15.99940
9023 OM 9023 OM OM1 9023 -0.550000 15.99940
9024 OM 9024 OM OM1 9024 -0.550000 15.99940
9025 OM 9025 OM OM1 9025 -0.550000 15.99940
9026 OM 9026 OM OM1 9026 -0.550000 15.99940
9027 OM 9027 OM OM1 9027 -0.550000 15.99940
9028 OM 9028 OM OM1 9028 -0.550000 15.99940
9029 OM 9029 OM OM1 9029 -0.550000 15.99940
9030 OM 9030 OM OM1 9030 -0.550000 15.99940
9031 OM 9031 OM OM1 9031 -0.550000 15.99940
9032 OM 9032 OM OM1 9032 -0.550000 15.99940
9033 OM 9033 OM OM1 9033 -0.550000 15.99940
9034 OM 9034 OM OM1 9034 -0.550000 15.99940
9035 OM 9035 OM OM1 9035 -0.550000 15.99940
9036 OM 9036 OM OM1 9036 -0.550000 15.99940
9037 OM 9037 OM OM1 9037 -0.550000 15.99940
9038 OM 9038 OM OM1 9038 -0.550000 15.99940
9039 OM 9039 OM OM1 9039 -0.550000 15.99940
9040 OM 9040 OM OM1 9040 -0.550000 15.99940
9041 OM 9041 OM OM1 9041 -0.550000 15.99940
9042 OM 9042 OM OM1 9042 -0.550000 15.99940
9043 OM 9043 OM OM1 9043 -0.550000 15.99940
9044 OM 9044 OM OM1 9044 -0.550000 15.99940
9045 OM 9045 OM OM1 9045 -0.550000 15.99940
9046 OM 9046 OM OM1 9046 -0.550000 15.99940
9047 OM 9047 OM OM1 9047 -0.550000 15.99940
9048 OM 9048 OM OM1 9048 -0.550000 15.99940
9049 OM 9049 OM OM1 9049 -0.550000 15.99940
9050 OM 9050 OM OM1 9050 -0.550000 15.99940
9051 OM 9051 OM OM1 9051 -0.550000 15.99940
9052 OM 9052 OM OM1 9052 -0.550000 15.99940
9053 OM 9053 OM OM1 9053 -0.550000 15.99940
9054 OM 9054 OM OM1 9054 -0.550000 15.99940
9055 OM 9055 OM OM1 9055 -0.550000 15.99940
9056 OM 9056 OM OM1 9056 -0.550000 15.99940
9057 OM 9057 OM OM1 9057 -0.550000 15.99940
9058 OM 9058 OM OM1 9058 -0.550000 15.99940
9059 OM 9059 OM OM1 9059 -0.550000 15.99940
9060 OM 9060 OM OM1 9060 -0.550000 15.99940
9061 OM 9061 OM OM1 9061 -0.550000 15.99940
9062 OM 9062 OM OM1 9062 -0.550000 15.99940
9063 OM 9063 OM OM1 9063 -0.550000 15.99940
9064 OM 9064 OM OM1 9064 -0.550000 15.99940
9065 OM 9065 OM OM1 9065 -0.550000 15.99940
9066 OM 9066 OM OM1 9066 -0.550000 15.99940
9067 OM 9067 OM OM1 9067 -0.550000 15.99940
9068 OM 9068 OM OM1 9068 -0.550000 15.99940
9069 OM 9069 OM OM1 9069 -0.550000 15.99940
9070 OM 9070 OM OM1 9070 -0.550000 15.99940
9071 OM 9071 OM OM1 9071 -0.550000 15.99940
9072 OM 9072 OM OM1 9072 -0.550000 15.99940
9073 OM 9073 OM OM1 9073 -0.550000 15.99940
9074 OM 9074 OM OM1 9074 -0.550000 15.99940
9075 OM 9075 OM OM1 9075 -0.550000 15.99940
9076 OM 9076 OM OM1 9076 -0.550000 15.99940
9077 OM 9077 OM OM1 9077 -0.550000 15.99940
9078 OM 9078 OM OM1 9078 -0.550000 15.99940
9079 OM 9079 OM OM1 9079 -0.550000 15.99940
9080 OM 9080 OM OM1 9080 -0.550000 15.99940
9081 OM 9081 OM OM1 9081 -0.550000 15.99940
9082 OM 9082 OM OM1 9082 -0.550000 15.99940
9083 OM 9083 OM OM1 9083 -0.550000 15.99940
9084 OM 9084 OM OM1 9084 -0.550000 15.99940
9085 OM 9085 OM OM1 9085 -0.550000 15.99940
9086 OM 9086 OM OM1 9086 -0.550000 15.99940
9087 OM 9087 OM OM1 9087 -0.550000 15.99940
9088 OM 9088 OM OM1 9088 -0.550000 15.99940
9089 OM 9089 OM OM1 9089 -0.550000 15.99940
9090 OM 9090 OM OM1 9090 -0.550000 15.99940
9091 OM 9091 OM OM1 9091 -0.550000 15.99940
9092 OM 9092 OM OM1 9092 -0.550000 15.99940
9093 OM 9093 OM OM1 9093 -0.550000 15.99940
9094 OM 9094 OM OM1 9094 -0.550000 15.99940
9095 OM 9095 OM OM1 9095 -0.550000 15.99940
9096 OM 9096 OM OM1 9096 -0.550000 15.99940
9097 OM 9097 OM OM1 9097 -0.550000 15.99940
9098 OM 9098 OM OM1 9098 -0.550000 15.99940
9099 OM 9099 OM OM1 9099 -0.550000 15.99940
9100 OM 9100 OM OM1 9100 -0.550000 15.99940
9101 OM 9101 OM OM1 9101 -0.550000 15.99940
9102 OM 9102 OM OM1 9102 -0.550000 15.99940
9103 OM 9103 OM OM1 9103 -0.550000 15.99940
9104 OM 9104 OM OM1 9104 -0.550000 15.99940
9105 OM 9105 OM OM1 9105 -0.550000 15.99940
9106 OM 9106 OM OM1 9106 -0.550000 15.99940
9107 OM 9107 OM OM1 9107 -0.550000 15.99940
9108 OM 9108 OM OM1 9108 -0.550000 15.99940
9109 OM 9109 OM OM1 9109 -0.550000 15.99940
9110 OM 9110 OM OM1 9110 -0.550000 15.99940
9111 OM 9111 OM OM1 9111 -0.550000 15.99940
9112 OM 9112 OM OM1 9112 -0.550000 15.99940
9113 OM 9113 OM OM1 9113 -0.550000 15.99940
9114 OM 9114 OM OM1 9114 -0.550000 15.99940
9115 OM 9115 OM OM1 9115 -0.550000 15.99940
9116 OM 9116 OM OM1 9116 -0.550000 15.99940
9117 OM 9117 OM OM1 9117 -0.550000 15.99940
9118 OM 9118 OM OM1 9118 -0.550000 15.99940
9119 OM 9119 OM OM1 9119 -0.550000 15.99940
9120 OM 9120 OM OM1 9120 -0.550000 15.99940
9121 OM 9121 OM OM1 9121 -0.550000 15.99940
9122 OM 9122 OM OM1 9122 -0.550000 15.99940
9123 OM 9123 OM OM1 9123 -0.550000 15.99940
9124 OM 9124 OM OM1 9124 -0.550000 15.99940
9125 OM 9125 OM OM1 9125 -0.550000 15.99940
9126 OM 9126 OM OM1 9126 -0.550000 15.99940
9127 OM 9127 OM OM1 9127 -0.550000 15.99940
9128 OM 9128 OM OM1 9128 -0.550000 15.99940
9129 OM 9129 OM OM1 9129 -0.550000 15.99940
9130 OM 9130 OM OM1 9130 -0.550000 15.99940
9131 OM 9131 OM OM1 9131 -0.550000 15.99940
9132 OM 9132 OM OM1 9132 -0.550000 15.99940
9133 OM 9133 OM OM1 9133 -0.550000 15.99940
9134 OM 9134 OM OM1 9134 -0.550000 15.99940
9135 OM 9135 OM OM1 9135 -0.550000 15.99940
9136 OM 9136 OM OM1 9136 -0.550000 15.99940
9137 OM 9137 OM OM1 9137 -0.550000 15.99940
9138 OM 9138 OM OM1 9138 -0.550000 15.99940
9139 OM 9139 OM OM1 9139 -0.550000 15.99940
9140 OM 9140 OM OM1 9140 -0.550000 15.99940
9141 OM 9141 OM OM1 9141 -0.550000 15.99940
9142 OM 9142 OM OM1 9142 -0.550000 15.99940
9143 OM 9143 OM OM1 9143 -0.550000 15.99940
9144 OM 9144 OM OM1 9144 -0.550000 15.99940
9145 OM 9145 OM OM1 9145 -0.550000 15.99940
9146 OM 9146 OM OM1 9146 -0.550000 15.99940
9147 OM 9147 OM OM1 9147 -0.550000 15.99940
9148 OM 9148 OM OM1 9148 -0.550000 15.99940
9149 OM 9149 OM OM1 9149 -0.550000 15.99940
9150 OM 9150 OM OM1 9150 -0.550000 15.99940
9151 OM 9151 OM OM1 9151 -0.550000 15.99940
9152 OM 9152 OM OM1 9152 -0.550000 15.99940
9153 OM 9153 OM OM1 9153 -0.550000 15.99940
9154 OM 9154 OM OM1 9154 -0.550000 15.99940
9155 OM 9155 OM OM1 9155 -0.550000 15.99940
9156 OM 9156 OM OM1 9156 -0.550000 15.99940
9157 OM 9157 OM OM1 9157 -0.550000 15.99940
9158 OM 9158 OM OM1 9158 -0.550000 15.99940
9159 OM 9159 OM OM1 9159 -0.550000 15.99940
9160 OM 9160 OM OM1 9160 -0.550000 15.99940
9161 OM 9161 OM OM1 9161 -0.550000 15.99940
9162 OM 9162 OM OM1 9162 -0.550000 15.99940
9163 OM 9163 OM OM1 9163 -0.550000 15.99940
9164 OM 9164 OM OM1 9164 -0.550000 15.99940
9165 OM 9165 OM OM1 9165 -0.550000 15.99940
9166 OM 9166 OM OM1 9166 -0.550000 15.99940
9167 OM 9167 OM OM1 9167 -0.550000 15.99940
9168 OM 9168 OM OM1 9168 -0.550000 15.99940
9169 OM 9169 OM OM1 9169 -0.550000 15.99940
9170 OM 9170 OM OM1 9170 -0.550000 15.99940
9171 OM 9171 OM OM1 9171 -0.550000 15.99940
9172 OM 9172 OM OM1 9172 -0.550000 15.99940
9173 OM 9173 OM OM1 9173 -0.550000 15.99940
9174 OM 9174 OM OM1 9174 -0.550000 15.99940
9175 OM 9175 OM OM1 9175 -0.550000 15.99940
9176 OM 9176 OM OM1 9176 -0.550000 15.99940
9177 OM 9177 OM OM1 9177 -0.550000 15.99940
9178 OM 9178 OM OM1 9178 -0.550000 15.99940
9179 OM 9179 OM OM1 9179 -0.550000 15.99940
9180 OM 9180 OM OM1 9180 -0.550000 15.99940
9181 OM 9181 OM OM1 9181 -0.550000 15.99940
9182 OM 9182 OM OM1 9182 -0.550000 15.99940
9183 OM 9183 OM OM1 9183 -0.550000 15.99940
9184 OM 9184 OM OM1 9184 -0.550000 15.99940
9185 OM 9185 OM OM1 9185 -0.550000 15.99940
9186 OM 9186 OM OM1 9186 -0.550000 15.99940
9187 OM 9187 OM OM1 9187 -0.550000 15.99940
9188 OM 9188 OM OM1 9188 -0.550000 15.99940
9189 OM 9189 OM OM1 9189 -0.550000 15.99940
9190 OM 9190 OM OM1 9190 -0.550000 15.99940
9191 OM 9191 OM OM1 9191 -0.550000 15.99940
9192 OM 9192 OM OM1 9192 -0.550000 15.99940
9193 OM 9193 OM OM1 9193 -0.550000 15.99940
9194 OM 9194 OM OM1 9194 -0.550000 15.99940
9195 OM 9195 OM OM1 9195 -0.550000 15.99940
9196 OM 9196 OM OM1 9196 -0.550000 15.99940
9197 OM 9197 OM OM1 9197 -0.550000 15.99940
9198 OM 9198 OM OM1 9198 -0.550000 15.99940
9199 OM 9199 OM OM1 9199 -0.550000 15.99940
9200 OM 9200 OM OM1 9200 -0.550000 15.99940
9201 OM 9201 OM OM1 9201 -0.550000 15.99940
9202 OM 9202 OM OM1 9202 -0.550000 15.99940
9203 OM 9203 OM OM1 9203 -0.550000 15.99940
9204 OM 9204 OM OM1 9204 -0.550000 15.99940
9205 OM 9205 OM OM1 9205 -0.550000 15.99940
9206 OM 9206 OM OM1 9206 -0.550000 15.99940
9207 OM 9207 OM OM1 9207 -0.550000 15.99940
9208 OM 9208 OM OM1 9208 -0.550000 15.99940
9209 OM 9209 OM OM1 9209 -0.550000 15.99940
9210 OM 9210 OM OM1 9210 -0.550000 15.99940
9211 OM 9211 OM OM1 9211 -0.550000 15.99940
9212 OM 9212 OM OM1 9212 -0.550000 15.99940
9213 OM 9213 OM OM1 9213 -0.550000 15.99940
9214 OM 9214 OM OM1 9214 -0.550000 15.99940
9215 OM 9215 OM OM1 9215 -0.550000 15.99940
9216 OM 9216 OM OM1 9216 -0.550000 15.99940
9217 OM 9217 OM OM1 9217 -0.550000 15.99940
9218 OM 9218 OM OM1 9218 -0.550000 15.99940
9219 OM 9219 OM OM1 9219 -0.550000 15.99940
9220 OM 9220 OM OM1 9220 -0.550000 15.99940
9221 OM 9221 OM OM1 9221 -0.550000 15.99940
9222 OM 9222 OM OM1 9222 -0.550000 15.99940
9223 OM 9223 OM OM1 9223 -0.550000 15.99940
9224 OM 9224 OM OM1 9224 -0.550000 15.99940
9225 OM 9225 OM OM1 9225 -0.550000 15.99940
9226 OM 9226 OM OM1 9226 -0.550000 15.99940
9227 OM 9227 OM OM1 9227 -0.550000 15.99940
9228 OM 9228 OM OM1 9228 -0.550000 15.99940
9229 OM 9229 OM OM1 9229 -0.550000 15.99940
9230 OM 9230 OM OM1 9230 -0.550000 15.99940
9231 OM 9231 OM OM1 9231 -0.550000 15.99940
9232 OM 9232 OM OM1 9232 -0.550000 15.99940
9233 OM 9233 OM OM1 9233 -0.550000 15.99940
9234 OM 9234 OM OM1 9234 -0.550000 15.99940
9235 OM 9235 OM OM1 9235 -0.550000 15.99940
9236 OM 9236 OM OM1 9236 -0.550000 15.99940
9237 OM 9237 OM OM1 9237 -0.550000 15.99940
9238 OM 9238 OM OM1 9238 -0.550000 15.99940
9239 OM 9239 OM OM1 9239 -0.550000 15.99940
9240 OM 9240 OM OM1 9240 -0.550000 15.99940
9241 OM 9241 OM OM1 9241 -0.550000 15.99940
9242 OM 9242 OM OM1 9242 -0.550000 15.99940
9243 OM 9243 OM OM1 9243 -0.550000 15.99940
9244 OM 9244 OM OM1 9244 -0.550000 15.99940
9245 OM 9245 OM OM1 9245 -0.550000 15.99940
9246 OM 9246 OM OM1 9246 -0.550000 15.99940
9247 OM 9247 OM OM1 9247 -0.550000 15.99940
9248 OM 9248 OM OM1 9248 -0.550000 15.99940
9249 OM 9249 OM OM1 9249 -0.550000 15.99940
9250 OM 9250 OM OM1 9250 -0.550000 15.99940
9251 OM 9251 OM OM1 9251 -0.550000 15.99940
9252 OM 9252 OM OM1 9252 -0.550000 15.99940
9253 OM 9253 OM OM1 9253 -0.550000 15.99940
9254 OM 9254 OM OM1 9254 -0.550000 15.99940
9255 OM 9255 OM OM1 9255 -0.550000 15.99940
9256 OM 9256 OM OM1 9256 -0.550000 15.99940
9257 OM 9257 OM OM1 9257 -0.550000 15.99940
9258 OM 9258 OM OM1 9258 -0.550000 15.99940
9259 OM 9259 OM OM1 9259 -0.550000 15.99940
9260 OM 9260 OM OM1 9260 -0.550000 15.99940
9261 OM 9261 OM OM1 9261 -0.550000 15.99940
9262 OM 9262 OM OM1 9262 -0.550000 15.99940
9263 OM 9263 OM OM1 9263 -0.550000 15.99940
9264 OM 9264 OM OM1 9264 -0.550000 15.99940
9265 OM 9265 OM OM1 9265 -0.550000 15.99940
9266 OM 9266 OM OM1 9266 -0.550000 15.99940
9267 OM 9267 OM OM1 9267 -0.550000 15.99940
9268 OM 9268 OM OM1 9268 -0.550000 15.99940
9269 OM 9269 OM OM1 9269 -0.550000 15.99940
9270 OM 9270 OM OM1 9270 -0.550000 15.99940
9271 OM 9271 OM OM1 9271 -0.550000 15.99940
9272 OM 9272 OM OM1 9272 -0.550000 15.99940
9273 OM 9273 OM OM1 9273 -0.550000 15.99940
9274 OM 9274 OM OM1 9274 -0.550000 15.99940
9275 OM 9275 OM OM1 9275 -0.550000 15.99940
9276 OM 9276 OM OM1 9276 -0.550000 15.99940
9277 OM 9277 OM OM1 9277 -0.550000 15.99940
9278 OM 9278 OM OM1 9278 -0.550000 15.99940
9279 OM 9279 OM OM1 9279 -0.550000 15.99940
9280 OM 9280 OM OM1 9280 -0.550000 15.99940
9281 OM 9281 OM OM1 9281 -0.550000 15.99940
9282 OM 9282 OM OM1 9282 -0.550000 15.99940
9283 OM 9283 OM OM1 9283 -0.550000 15.99940
9284 OM 9284 OM OM1 9284 -0.550000 15.99940
9285 OM 9285 OM OM1 9285 -0.550000 15.99940
9286 OM 9286 OM OM1 9286 -0.550000 15.99940
9287 OM 9287 OM OM1 9287 -0.550000 15.99940
9288 OM 9288 OM OM1 9288 -0.550000 15.99940
9289 OM 9289 OM OM1 9289 -0.550000 15.99940
9290 OM 9290 OM OM1 9290 -0.550000 15.99940
9291 OM 9291 OM OM1 9291 -0.550000 15.99940
9292 OM 9292 OM OM1 9292 -0.550000 15.99940
9293 OM 9293 OM OM1 9293 -0.550000 15.99940
9294 OM 9294 OM OM1 9294 -0.550000 15.99940
9295 OM 9295 OM OM1 9295 -0.550000 15.99940
9296 OM 9296 OM OM1 9296 -0.550000 15.99940
9297 OM 9297 OM OM1 9297 -0.550000 15.99940
9298 OM 9298 OM OM1 9298 -0.550000 15.99940
9299 OM 9299 OM OM1 9299 -0.550000 15.99940
9300 OM 9300 OM OM1 9300 -0.550000 15.99940
9301 OM 9301 OM OM1 9301 -0.550000 15.99940
9302 OM 9302 OM OM1 9302 -0.550000 15.99940
9303 OM 9303 OM OM1 9303 -0.550000 15.99940
9304 OM 9304 OM OM1 9304 -0.550000 15.99940
9305 OM 9305 OM OM1 9305 -0.550000 15.99940
9306 OM 9306 OM OM1 9306 -0.550000 15.99940
9307 OM 9307 OM OM1 9307 -0.550000 15.99940
9308 OM 9308 OM OM1 9308 -0.550000 15.99940
9309 OM 9309 OM OM1 9309 -0.550000 15.99940
9310 OM 9310 OM OM1 9310 -0.550000 15.99940
9311 OM 9311 OM OM1 9311 -0.550000 15.99940
9312 OM 9312 OM OM1 9312 -0.550000 15.99940
9313 OM 9313 OM OM1 9313 -0.550000 15.99940
9314 OM 9314 OM OM1 9314 -0.550000 15.99940
9315 OM 9315 OM OM1 9315 -0.550000 15.99940
9316 OM 9316 OM OM1 9316 -0.550000 15.99940
9317 OM 9317 OM OM1 9317 -0.550000 15.99940
9318 OM 9318 OM OM1 9318 -0.550000 15.99940
9319 OM 9319 OM OM1 9319 -0.550000 15.99940
9320 OM 9320 OM OM1 9320 -0.550000 15.99940
9321 OM 9321 OM OM1 9321 -0.550000 15.99940
9322 OM 9322 OM OM1 9322 -0.550000 15.99940
9323 OM 9323 OM OM1 9323 -0.550000 15.99940
9324 OM 9324 OM OM1 9324 -0.550000 15.99940
9325 OM 9325 OM OM1 9325 -0.550000 15.99940
9326 OM 9326 OM OM1 9326 -0.550000 15.99940
9327 OM 9327 OM OM1 9327 -0.550000 15.99940
9328 OM 9328 OM OM1 9328 -0.550000 15.99940
9329 OM 9329 OM OM1 9329 -0.550000 15.99940
9330 OM 9330 OM OM1 9330 -0.550000 15.99940
9331 OM 9331 OM OM1 9331 -0.550000 15.99940
9332 OM 9332 OM OM1 9332 -0.550000 15.99940
9333 OM 9333 OM OM1 9333 -0.550000 15.99940
9334 OM 9334 OM OM1 9334 -0.550000 15.99940
9335 OM 9335 OM OM1 9335 -0.550000 15.99940
9336 OM 9336 OM OM1 9336 -0.550000 15.99940
9337 OM 9337 OM OM1 9337 -0.550000 15.99940
9338 OM 9338 OM OM1 9338 -0.550000 15.99940
9339 OM 9339 OM OM1 9339 -0.550000 15.99940
9340 OM 9340 OM OM1 9340 -0.550000 15.99940
9341 OM 9341 OM OM1 9341 -0.550000 15.99940
9342 OM 9342 OM OM1 9342 -0.550000 15.99940
9343 OM 9343 OM OM1 9343 -0.550000 15.99940
9344 OM 9344 OM OM1 9344 -0.550000 15.99940
9345 OM 9345 OM OM1 9345 -0.550000 15.99940
9346 OM 9346 OM OM1 9346 -0.550000 15.99940
9347 OM 9347 OM OM1 9347 -0.550000 15.99940
9348 OM 9348 OM OM1 9348 -0.550000 15.99940
9349 OM 9349 OM OM1 9349 -0.550000 15.99940
9350 OM 9350 OM OM1 9350 -0.550000 15.99940
9351 OM 9351 OM OM1 9351 -0.550000 15.99940
9352 OM 9352 OM OM1 9352 -0.550000 15.99940
9353 OM 9353 OM OM1 9353 -0.550000 15.99940
9354 OM 9354 OM OM1 9354 -0.550000 15.99940
9355 OM 9355 OM OM1 9355 -0.550000 15.99940
9356 OM 9356 OM OM1 9356 -0.550000 15.99940
9357 OM 9357 OM OM1 9357 -0.550000 15.99940
9358 OM 9358 OM OM1 9358 -0.550000 15.99940
9359 OM 9359 OM OM1 9359 -0.550000 15.99940
9360 OM 9360 OM OM1 9360 -0.550000 15.99940
9361 OM 9361 OM OM1 9361 -0.550000 15.99940
9362 OM 9362 OM OM1 9362 -0.550000 15.99940
9363 OM 9363 OM OM1 9363 -0.550000 15.99940
9364 OM 9364 OM OM1 9364 -0.550000 15.99940
9365 OM 9365 OM OM1 9365 -0.550000 15.99940
9366 OM 9366 OM OM1 9366 -0.550000 15.99940
9367 OM 9367 OM OM1 9367 -0.550000 15.99940
9368 OM 9368 OM OM1 9368 -0.550000 15.99940
9369 OM 9369 OM OM1 9369 -0.550000 15.99940
9370 OM 9370 OM OM1 9370 -0.550000 15.99940
9371 OM 9371 OM OM1 9371 -0.550000 15.99940
9372 OM 9372 OM OM1 9372 -0.550000 15.99940
9373 OM 9373 OM OM1 9373 -0.550000 15.99940
9374 OM 9374 OM OM1 9374 -0.550000 15.99940
9375 OM 9375 OM OM1 9375 -0.550000 15.99940
9376 OM 9376 OM OM1 9376 -0.550000 15.99940
9377 OM 9377 OM OM1 9377 -0.550000 15.99940
9378 OM 9378 OM OM1 9378 -0.550000 15.99940
9379 OM 9379 OM OM1 9379 -0.550000 15.99940
9380 OM 9380 OM OM1 9380 -0.550000 15.99940
9381 OM 9381 OM OM1 9381 -0.550000 15.99940
9382 OM 9382 OM OM1 9382 -0.550000 15.99940
9383 OM 9383 OM OM1 9383 -0.550000 15.99940
9384 OM 9384 OM OM1 9384 -0.550000 15.99940
9385 OM 9385 OM OM1 9385 -0.550000 15.99940
9386 OM 9386 OM OM1 9386 -0.550000 15.99940
9387 OM 9387 OM OM1 9387 -0.550000 15.99940
9388 OM 9388 OM OM1 9388 -0.550000 15.99940
9389 OM 9389 OM OM1 9389 -0.550000 15.99940
9390 OM 9390 OM OM1 9390 -0.550000 15.99940
9391 OM 9391 OM OM1 9391 -0.550000 15.99940
9392 OM 9392 OM OM1 9392 -0.550000 15.99940
9393 OM 9393 OM OM1 9393 -0.550000 15.99940
9394 OM 9394 OM OM1 9394 -0.550000 15.99940
9395 OM 9395 OM OM1 9395 -0.550000 15.99940
9396 OM 9396 OM OM1 9396 -0.550000 15.99940
9397 OM 9397 OM OM1 9397 -0.550000 15.99940
9398 OM 9398 OM OM1 9398 -0.550000 15.99940
9399 OM 9399 OM OM1 9399 -0.550000 15.99940
9400 OM 9400 OM OM1 9400 -0.550000 15.99940
9401 OM 9401 OM OM1 9401 -0.550000 15.99940
9402 OM 9402 OM OM1 9402 -0.550000 15.99940
9403 OM 9403 OM OM1 9403 -0.550000 15.99940
9404 OM 9404 OM OM1 9404 -0.550000 15.99940
9405 OM 9405 OM OM1 9405 -0.550000 15.99940
9406 OM 9406 OM OM1 9406 -0.550000 15.99940
9407 OM 9407 OM OM1 9407 -0.550000 15.99940
9408 OM 9408 OM OM1 9408 -0.550000 15.99940
9409 OM 9409 OM OM1 9409 -0.550000 15.99940
9410 OM 9410 OM OM1 9410 -0.550000 15.99940
9411 OM 9411 OM OM1 9411 -0.550000 15.99940
9412 OM 9412 OM OM1 9412 -0.550000 15.99940
9413 OM 9413 OM OM1 9413 -0.550000 15.99940
9414 OM 9414 OM OM1 9414 -0.550000 15.99940
9415 OM 9415 OM OM1 9415 -0.550000 15.99940
9416 OM 9416 OM OM1 9416 -0.550000 15.99940
9417 OM 9417 OM OM1 9417 -0.550000 15.99940
9418 OM 9418 OM OM1 9418 -0.550000 15.99940
9419 OM 9419 OM OM1 9419 -0.550000 15.99940
9420 OM 9420 OM OM1 9420 -0.550000 15.99940
9421 OM 9421 OM OM1 9421 -0.550000 15.99940
9422 OM 9422 OM OM1 9422 -0.550000 15.99940
9423 OM 9423 OM OM1 9423 -0.550000 15.99940
9424 OM 9424 OM OM1 9424 -0.550000 15.99940
9425 OM 9425 OM OM1 9425 -0.550000 15.99940
9426 OM 9426 OM OM1 9426 -0.550000 15.99940
9427 OM 9427 OM OM1 9427 -0.550000 15.99940
9428 OM 9428 OM OM1 9428 -0.550000 15.99940
9429 OM 9429 OM OM1 9429 -0.550000 15.99940
9430 OM 9430 OM OM1 9430 -0.550000 15.99940
9431 OM 9431 OM OM1 9431 -0.550000 15.99940
9432 OM 9432 OM OM1 9432 -0.550000 15.99940
9433 OM 9433 OM OM1 9433 -0.550000 15.99940
9434 OM 9434 OM OM1 9434 -0.550000 15.99940
9435 OM 9435 OM OM1 9435 -0.550000 15.99940
9436 OM 9436 OM OM1 9436 -0.550000 15.99940
9437 OM 9437 OM OM1 9437 -0.550000 15.99940
9438 OM 9438 OM OM1 9438 -0.550000 15.99940
9439 OM 9439 OM OM1 9439 -0.550000 15.99940
9440 OM 9440 OM OM1 9440 -0.550000 15.99940
9441 OM 9441 OM OM1 9441 -0.550000 15.99940
9442 OM 9442 OM OM1 9442 -0.550000 15.99940
9443 OM 9443 OM OM1 9443 -0.550000 15.99940
9444 OM 9444 OM OM1 9444 -0.550000 15.99940
9445 OM 9445 OM OM1 9445 -0.550000 15.99940
9446 OM 9446 OM OM1 9446 -0.550000 15.99940
9447 OM 9447 OM OM1 9447 -0.550000 15.99940
9448 OM 9448 OM OM1 9448 -0.550000 15.99940
9449 OM 9449 OM OM1 9449 -0.550000 15.99940
9450 OM 9450 OM OM1 9450 -0.550000 15.99940
9451 OM 9451 OM OM1 9451 -0.550000 15.99940
9452 OM 9452 OM OM1 9452 -0.550000 15.99940
9453 OM 9453 OM OM1 9453 -0.550000 15.99940
9454 OM 9454 OM OM1 9454 -0.550000 15.99940
9455 OM 9455 OM OM1 9455 -0.550000 15.99940
9456 OM 9456 OM OM1 9456 -0.550000 15.99940
9457 OM 9457 OM OM1 9457 -0.550000 15.99940
9458 OM 9458 OM OM1 9458 -0.550000 15.99940
9459 OM 9459 OM OM1 9459 -0.550000 15.99940
9460 OM 9460 OM OM1 9460 -0.550000 15.99940
9461 OM 9461 OM OM1 9461 -0.550000 15.99940
9462 OM 9462 OM OM1 9462 -0.550000 15.99940
9463 OM 9463 OM OM1 9463 -0.550000 15.99940
9464 OM 9464 OM OM1 9464 -0.550000 15.99940
9465 OM 9465 OM OM1 9465 -0.550000 15.99940
9466 OM 9466 OM OM1 9466 -0.550000 15.99940
9467 OM 9467 OM OM1 9467 -0.550000 15.99940
9468 OM 9468 OM OM1 9468 -0.550000 15.99940
9469 OM 9469 OM OM1 9469 -0.550000 15.99940
9470 OM 9470 OM OM1 9470 -0.550000 15.99940
9471 OM 9471 OM OM1 9471 -0.550000 15.99940
9472 OM 9472 OM OM1 9472 -0.550000 15.99940
9473 OM 9473 OM OM1 9473 -0.550000 15.99940
9474 OM 9474 OM OM1 9474 -0.550000 15.99940
9475 OM 9475 OM OM1 9475 -0.550000 15.99940
9476 OM 9476 OM OM1 9476 -0.550000 15.99940
9477 OM 9477 OM OM1 9477 -0.550000 15.99940
9478 OM 9478 OM OM1 9478 -0.550000 15.99940
9479 OM 9479 OM OM1 9479 -0.550000 15.99940
9480 OM 9480 OM OM1 9480 -0.550000 15.99940
9481 OM 9481 OM OM1 9481 -0.550000 15.99940
9482 OM 9482 OM OM1 9482 -0.550000 15.99940
9483 OM 9483 OM OM1 9483 -0.550000 15.99940
9484 OM 9484 OM OM1 9484 -0.550000 15.99940
9485 OM 9485 OM OM1 9485 -0.550000 15.99940
9486 OM 9486 OM OM1 9486 -0.550000 15.99940
9487 OM 9487 OM OM1 9487 -0.550000 15.99940
9488 OM 9488 OM OM1 9488 -0.550000 15.99940
9489 OM 9489 OM OM1 9489 -0.550000 15.99940
9490 OM 9490 OM OM1 9490 -0.550000 15.99940
9491 OM 9491 OM OM1 9491 -0.550000 15.99940
9492 OM 9492 OM OM1 9492 -0.550000 15.99940
9493 OM 9493 OM OM1 9493 -0.550000 15.99940
9494 OM 9494 OM OM1 9494 -0.550000 15.99940
9495 OM 9495 OM OM1 9495 -0.550000 15.99940
9496 OM 9496 OM OM1 9496 -0.550000 15.99940
9497 OM 9497 OM OM1 9497 -0.550000 15.99940
9498 OM 9498 OM OM1 9498 -0.550000 15.99940
9499 OM 9499 OM OM1 9499 -0.550000 15.99940
9500 OM 9500 OM OM1 9500 -0.550000 15.99940
9501 OM 9501 OM OM1 9501 -0.550000 15.99940
9502 OM 9502 OM OM1 9502 -0.550000 15.99940
9503 OM 9503 OM OM1 9503 -0.550000 15.99940
9504 OM 9504 OM OM1 9504 -0.550000 15.99940
9505 OM 9505 OM OM1 9505 -0.550000 15.99940
9506 OM 9506 OM OM1 9506 -0.550000 15.99940
9507 OM 9507 OM OM1 9507 -0.550000 15.99940
9508 OM 9508 OM OM1 9508 -0.550000 15.99940
9509 OM 9509 OM OM1 9509 -0.550000 15.99940
9510 OM 9510 OM OM1 9510 -0.550000 15.99940
9511 OM 9511 OM OM1 9511 -0.550000 15.99940
9512 OM 9512 OM OM1 9512 -0.550000 15.99940
9513 OM 9513 OM OM1 9513 -0.550000 15.99940
9514 OM 9514 OM OM1 9514 -0.550000 15.99940
9515 OM 9515 OM OM1 9515 -0.550000 15.99940
9516 OM 9516 OM OM1 9516 -0.550000 15.99940
9517 OM 9517 OM OM1 9517 -0.550000 15.99940
9518 OM 9518 OM OM1 9518 -0.550000 15.99940
9519 OM 9519 OM OM1 9519 -0.550000 15.99940
9520 OM 9520 OM OM1 9520 -0.550000 15.99940
9521 OM 9521 OM OM1 9521 -0.550000 15.99940
9522 OM 9522 OM OM1 9522 -0.550000 15.99940
9523 OM 9523 OM OM1 9523 -0.550000 15.99940
9524 OM 9524 OM OM1 9524 -0.550000 15.99940
9525 OM 9525 OM OM1 9525 -0.550000 15.99940
9526 OM 9526 OM OM1 9526 -0.550000 15.99940
9527 OM 9527 OM OM1 9527 -0.550000 15.99940
9528 OM 9528 OM OM1 9528 -0.550000 15.99940
9529 OM 9529 OM OM1 9529 -0.550000 15.99940
9530 OM 9530 OM OM1 9530 -0.550000 15.99940
9531 OM 9531 OM OM1 9531 -0.550000 15.99940
9532 OM 9532 OM OM1 9532 -0.550000 15.99940
9533 OM 9533 OM OM1 9533 -0.550000 15.99940
9534 OM 9534 OM OM1 9534 -0.550000 15.99940
9535 OM 9535 OM OM1 9535 -0.550000 15.99940
9536 OM 9536 OM OM1 9536 -0.550000 15.99940
9537 OM 9537 OM OM1 9537 -0.550000 15.99940
9538 OM 9538 OM OM1 9538 -0.550000 15.99940
9539 OM 9539 OM OM1 9539 -0.550000 15.99940
9540 OM 9540 OM OM1 9540 -0.550000 15.99940
9541 OM 9541 OM OM1 9541 -0.550000 15.99940
9542 OM 9542 OM OM1 9542 -0.550000 15.99940
9543 OM 9543 OM OM1 9543 -0.550000 15.99940
9544 OM 9544 OM OM1 9544 -0.550000 15.99940
9545 OM 9545 OM OM1 9545 -0.550000 15.99940
9546 OM 9546 OM OM1 9546 -0.550000 15.99940
9547 OM 9547 OM OM1 9547 -0.550000 15.99940
9548 OM 9548 OM OM1 9548 -0.550000 15.99940
9549 OM 9549 OM OM1 9549 -0.550000 15.99940
9550 OM 9550 OM OM1 9550 -0.550000 15.99940
9551 OM 9551 OM OM1 9551 -0.550000 15.99940
9552 OM 9552 OM OM1 9552 -0.550000 15.99940
9553 OM 9553 OM OM1 9553 -0.550000 15.99940
9554 OM 9554 OM OM1 9554 -0.550000 15.99940
9555 OM 9555 OM OM1 9555 -0.550000 15.99940
9556 OM 9556 OM OM1 9556 -0.550000 15.99940
9557 OM 9557 OM OM1 9557 -0.550000 15.99940
9558 OM 9558 OM OM1 9558 -0.550000 15.99940
9559 OM 9559 OM OM1 9559 -0.550000 15.99940
9560 OM 9560 OM OM1 9560 -0.550000 15.99940
9561 OM 9561 OM OM1 9561 -0.550000 15.99940
9562 OM 9562 OM OM1 9562 -0.550000 15.99940
9563 OM 9563 OM OM1 9563 -0.550000 15.99940
9564 OM 9564 OM OM1 9564 -0.550000 15.99940
9565 OM 9565 OM OM1 9565 -0.550000 15.99940
9566 OM 9566 OM OM1 9566 -0.550000 15.99940
9567 OM 9567 OM OM1 9567 -0.550000 15.99940
9568 OM 9568 OM OM1 9568 -0.550000 15.99940
9569 OM 9569 OM OM1 9569 -0.550000 15.99940
9570 OM 9570 OM OM1 9570 -0.550000 15.99940
9571 OM 9571 OM OM1 9571 -0.550000 15.99940
9572 OM 9572 OM OM1 9572 -0.550000 15.99940
9573 OM 9573 OM OM1 9573 -0.550000 15.99940
9574 OM 9574 OM OM1 9574 -0.550000 15.99940
9575 OM 9575 OM OM1 9575 -0.550000 15.99940
9576 OM 9576 OM OM1 9576 -0.550000 15.99940
9577 OM 9577 OM OM1 9577 -0.550000 15.99940
9578 OM 9578 OM OM1 9578 -0.550000 15.99940
9579 OM 9579 OM OM1 9579 -0.550000 15.99940
9580 OM 9580 OM OM1 9580 -0.550000 15.99940
9581 OM 9581 OM OM1 9581 -0.550000 15.99940
9582 OM 9582 OM OM1 9582 -0.550000 15.99940
9583 OM 9583 OM OM1 9583 -0.550000 15.99940
9584 OM 9584 OM OM1 9584 -0.550000 15.99940
9585 OM 9585 OM OM1 9585 -0.550000 15.99940
9586 OM 9586 OM OM1 9586 -0.550000 15.99940
9587 OM 9587 OM OM1 9587 -0.550000 15.99940
9588 OM 9588 OM OM1 9588 -0.550000 15.99940
9589 OM 9589 OM OM1 9589 -0.550000 15.99940
9590 OM 9590 OM OM1 9590 -0.550000 15.99940
9591 OM 9591 OM OM1 9591 -0.550000 15.99940
9592 OM 9592 OM OM1 9592 -0.550000 15.99940
9593 OM 9593 OM OM1 9593 -0.550000 15.99940
9594 OM 9594 OM OM1 9594 -0.550000 15.99940
9595 OM 9595 OM OM1 9595 -0.550000 15.99940
9596 OM 9596 OM OM1 9596 -0.550000 15.99940
9597 OM 9597 OM OM1 9597 -0.550000 15.99940
9598 OM 9598 OM OM1 9598 -0.550000 15.99940
9599 OM 9599 OM OM1 9599 -0.550000 15.99940
9600 OM 9600 OM OM1 9600 -0.550000 15.99940
9601 OM 9601 OM OM1 9601 -0.550000 15.99940
9602 OM 9602 OM OM1 9602 -0.550000 15.99940
9603 OM 9603 OM OM1 9603 -0.550000 15.99940
9604 OM 9604 OM OM1 9604 -0.550000 15.99940
9605 OM 9605 OM OM1 9605 -0.550000 15.99940
9606 OM 9606 OM OM1 9606 -0.550000 15.99940
9607 OM 9607 OM OM1 9607 -0.550000 15.99940
9608 OM 9608 OM OM1 9608 -0.550000 15.99940
9609 OM 9609 OM OM1 9609 -0.550000 15.99940
9610 OM 9610 OM OM1 9610 -0.550000 15.99940
9611 OM 9611 OM OM1 9611 -0.550000 15.99940
9612 OM 9612 OM OM1 9612 -0.550000 15.99940
9613 OM 9613 OM OM1 9613 -0.550000 15.99940
9614 OM 9614 OM OM1 9614 -0.550000 15.99940
9615 OM 9615 OM OM1 9615 -0.550000 15.99940
9616 OM 9616 OM OM1 9616 -0.550000 15.99940
9617 OM 9617 OM OM1 9617 -0.550000 15.99940
9618 OM 9618 OM OM1 9618 -0.550000 15.99940
9619 OM 9619 OM OM1 9619 -0.550000 15.99940
9620 OM 9620 OM OM1 9620 -0.550000 15.99940
9621 OM 9621 OM OM1 9621 -0.550000 15.99940
9622 OM 9622 OM OM1 9622 -0.550000 15.99940
9623 OM 9623 OM OM1 9623 -0.550000 15.99940
9624 OM 9624 OM OM1 9624 -0.550000 15.99940
9625 OM 9625 OM OM1 9625 -0.550000 15.99940
9626 OM 9626 OM OM1 9626 -0.550000 15.99940
9627 OM 9627 OM OM1 9627 -0.550000 15.99940
9628 OM 9628 OM OM1 9628 -0.550000 15.99940
9629 OM 9629 OM OM1 9629 -0.550000 15.99940
9630 OM 9630 OM OM1 9630 -0.550000 15.99940
9631 OM 9631 OM OM1 9631 -0.550000 15.99940
9632 OM 9632 OM OM1 9632 -0.550000 15.99940
9633 OM 9633 OM OM1 9633 -0.550000 15.99940
9634 OM 9634 OM OM1 9634 -0.550000 15.99940
9635 OM 9635 OM OM1 9635 -0.550000 15.99940
9636 OM 9636 OM OM1 9636 -0.550000 15.99940
9637 OM 9637 OM OM1 9637 -0.550000 15.99940
9638 OM 9638 OM OM1 9638 -0.550000 15.99940
9639 OM 9639 OM OM1 9639 -0.550000 15.99940
9640 OM 9640 OM OM1 9640 -0.550000 15.99940
9641 OM 9641 OM OM1 9641 -0.550000 15.99940
9642 OM 9642 OM OM1 9642 -0.550000 15.99940
9643 OM 9643 OM OM1 9643 -0.550000 15.99940
9644 OM 9644 OM OM1 9644 -0.550000 15.99940
9645 OM 9645 OM OM1 9645 -0.550000 15.99940
9646 OM 9646 OM OM1 9646 -0.550000 15.99940
9647 OM 9647 OM OM1 9647 -0.550000 15.99940
9648 OM 9648 OM OM1 9648 -0.550000 15.99940
9649 OM 9649 OM OM1 9649 -0.550000 15.99940
9650 OM 9650 OM OM1 9650 -0.550000 15.99940
9651 OM 9651 OM OM1 9651 -0.550000 15.99940
9652 OM 9652 OM OM1 9652 -0.550000 15.99940
9653 OM 9653 OM OM1 9653 -0.550000 15.99940
9654 OM 9654 OM OM1 9654 -0.550000 15.99940
9655 OM 9655 OM OM1 9655 -0.550000 15.99940
9656 OM 9656 OM OM1 9656 -0.550000 15.99940
9657 OM 9657 OM OM1 9657 -0.550000 15.99940
9658 OM 9658 OM OM1 9658 -0.550000 15.99940
9659 OM 9659 OM OM1 9659 -0.550000 15.99940
9660 OM 9660 OM OM1 9660 -0.550000 15.99940
9661 OM 9661 OM OM1 9661 -0.550000 15.99940
9662 OM 9662 OM OM1 9662 -0.550000 15.99940
9663 OM 9663 OM OM1 9663 -0.550000 15.99940
9664 OM 9664 OM OM1 9664 -0.550000 15.99940
9665 OM 9665 OM OM1 9665 -0.550000 15.99940
9666 OM 9666 OM OM1 9666 -0.550000 15.99940
9667 OM 9667 OM OM1 9667 -0.550000 15.99940
9668 OM 9668 OM OM1 9668 -0.550000 15.99940
9669 OM 9669 OM OM1 9669 -0.550000 15.99940
9670 OM 9670 OM OM1 9670 -0.550000 15.99940
9671 OM 9671 OM OM1 9671 -0.550000 15.99940
9672 OM 9672 OM OM1 9672 -0.550000 15.99940
9673 OM 9673 OM OM1 9673 -0.550000 15.99940
9674 OM 9674 OM OM1 9674 -0.550000 15.99940
9675 OM 9675 OM OM1 9675 -0.550000 15.99940
9676 OM 9676 OM OM1 9676 -0.550000 15.99940
9677 OM 9677 OM OM1 9677 -0.550000 15.99940
9678 OM 9678 OM OM1 9678 -0.550000 15.99940
9679 OM 9679 OM OM1 9679 -0.550000 15.99940
9680 OM 9680 OM OM1 9680 -0.550000 15.99940
9681 OM 9681 OM OM1 9681 -0.550000 15.99940
9682 OM 9682 OM OM1 9682 -0.550000 15.99940
9683 OM 9683 OM OM1 9683 -0.550000 15.99940
9684 OM 9684 OM OM1 9684 -0.550000 15.99940
9685 OM 9685 OM OM1 9685 -0.550000 15.99940
9686 OM 9686 OM OM1 9686 -0.550000 15.99940
9687 OM 9687 OM OM1 9687 -0.550000 15.99940
9688 OM 9688 OM OM1 9688 -0.550000 15.99940
9689 OM 9689 OM OM1 9689 -0.550000 15.99940
9690 OM 9690 OM OM1 9690 -0.550000 15.99940
9691 OM 9691 OM OM1 9691 -0.550000 15.99940
9692 OM 9692 OM OM1 9692 -0.550000 15.99940
9693 OM 9693 OM OM1 9693 -0.550000 15.99940
9694 OM 9694 OM OM1 9694 -0.550000 15.99940
9695 OM 9695 OM OM1 9695 -0.550000 15.99940
9696 OM 9696 OM OM1 9696 -0.550000 15.99940
9697 OM 9697 OM OM1 9697 -0.550000 15.99940
9698 OM 9698 OM OM1 9698 -0.550000 15.99940
9699 OM 9699 OM OM1 9699 -0.550000 15.99940
9700 OM 9700 OM OM1 9700 -0.550000 15.99940
9701 OM 9701 OM OM1 9701 -0.550000 15.99940
9702 OM 9702 OM OM1 9702 -0.550000 15.99940
9703 OM 9703 OM OM1 9703 -0.550000 15.99940
9704 OM 9704 OM OM1 9704 -0.550000 15.99940
9705 OM 9705 OM OM1 9705 -0.550000 15.99940
9706 OM 9706 OM OM1 9706 -0.550000 15.99940
9707 OM 9707 OM OM1 9707 -0.550000 15.99940
9708 OM 9708 OM OM1 9708 -0.550000 15.99940
9709 OM 9709 OM OM1 9709 -0.550000 15.99940
9710 OM 9710 OM OM1 9710 -0.550000 15.99940
9711 OM 9711 OM OM1 9711 -0.550000 15.99940
9712 OM 9712 OM OM1 9712 -0.550000 15.99940
9713 OM 9713 OM OM1 9713 -0.550000 15.99940
9714 OM 9714 OM OM1 9714 -0.550000 15.99940
9715 OM 9715 OM OM1 9715 -0.550000 15.99940
9716 OM 9716 OM OM1 9716 -0.550000 15.99940
9717 OM 9717 OM OM1 9717 -0.550000 15.99940
9718 OM 9718 OM OM1 9718 -0.550000 15.99940
9719 OM 9719 OM OM1 9719 -0.550000 15.99940
9720 OM 9720 OM OM1 9720 -0.550000 15.99940
9721 OM 9721 OM OM1 9721 -0.550000 15.99940
9722 OM 9722 OM OM1 9722 -0.550000 15.99940
9723 OM 9723 OM OM1 9723 -0.550000 15.99940
9724 OM 9724 OM OM1 9724 -0.550000 15.99940
9725 OM 9725 OM OM1 9725 -0.550000 15.99940
9726 OM 9726 OM OM1 9726 -0.550000 15.99940
9727 OM 9727 OM OM1 9727 -0.550000 15.99940
9728 OM 9728 OM OM1 9728 -0.550000 15.99940
9729 OM 9729 OM OM1 9729 -0.550000 15.99940
9730 OM 9730 OM OM1 9730 -0.550000 15.99940
9731 OM 9731 OM OM1 9731 -0.550000 15.99940
9732 OM 9732 OM OM1 9732 -0.550000 15.99940
9733 OM 9733 OM OM1 9733 -0.550000 15.99940
9734 OM 9734 OM OM1 9734 -0.550000 15.99940
9735 OM 9735 OM OM1 9735 -0.550000 15.99940
9736 OM 9736 OM OM1 9736 -0.550000 15.99940
9737 OM 9737 OM OM1 9737 -0.550000 15.99940
9738 OM 9738 OM OM1 9738 -0.550000 15.99940
9739 OM 9739 OM OM1 9739 -0.550000 15.99940
9740 OM 9740 OM OM1 9740 -0.550000 15.99940
9741 OM 9741 OM OM1 9741 -0.550000 15.99940
9742 OM 9742 OM OM1 9742 -0.550000 15.99940
9743 OM 9743 OM OM1 9743 -0.550000 15.99940
9744 OM 9744 OM OM1 9744 -0.550000 15.99940
9745 OM 9745 OM OM1 9745 -0.550000 15.99940
9746 OM 9746 OM OM1 9746 -0.550000 15.99940
9747 OM 9747 OM OM1 9747 -0.550000 15.99940
9748 OM 9748 OM OM1 9748 -0.550000 15.99940
9749 OM 9749 OM OM1 9749 -0.550000 15.99940
9750 OM 9750 OM OM1 9750 -0.550000 15.99940
9751 OM 9751 OM OM1 9751 -0.550000 15.99940
9752 OM 9752 OM OM1 9752 -0.550000 15.99940
9753 OM 9753 OM OM1 9753 -0.550000 15.99940
9754 OM 9754 OM OM1 9754 -0.550000 15.99940
9755 OM 9755 OM OM1 9755 -0.550000 15.99940
9756 OM 9756 OM OM1 9756 -0.550000 15.99940
9757 OM 9757 OM OM1 9757 -0.550000 15.99940
9758 OM 9758 OM OM1 9758 -0.550000 15.99940
9759 OM 9759 OM OM1 9759 -0.550000 15.99940
9760 OM 9760 OM OM1 9760 -0.550000 15.99940
9761 OM 9761 OM OM1 9761 -0.550000 15.99940
9762 OM 9762 OM OM1 9762 -0.550000 15.99940
9763 OM 9763 OM OM1 9763 -0.550000 15.99940
9764 OM 9764 OM OM1 9764 -0.550000 15.99940
9765 OM 9765 OM OM1 9765 -0.550000 15.99940
9766 OM 9766 OM OM1 9766 -0.550000 15.99940
9767 OM 9767 OM OM1 9767 -0.550000 15.99940
9768 OM 9768 OM OM1 9768 -0.550000 15.99940
9769 OM 9769 OM OM1 9769 -0.550000 15.99940
9770 OM 9770 OM OM1 9770 -0.550000 15.99940
9771 OM 9771 OM OM1 9771 -0.550000 15.99940
9772 OM 9772 OM OM1 9772 -0.550000 15.99940
9773 OM 9773 OM OM1 9773 -0.550000 15.99940
9774 OM 9774 OM OM1 9774 -0.550000 15.99940
9775 OM 9775 OM OM1 9775 -0.550000 15.99940
9776 OM 9776 OM OM1 9776 -0.550000 15.99940
9777 OM 9777 OM OM1 9777 -0.550000 15.99940
9778 OM 9778 OM OM1 9778 -0.550000 15.99940
9779 OM 9779 OM OM1 9779 -0.550000 15.99940
9780 OM 9780 OM OM1 9780 -0.550000 15.99940
9781 OM 9781 OM OM1 9781 -0.550000 15.99940
9782 OM 9782 OM OM1 9782 -0.550000 15.99940
9783 OM 9783 OM OM1 9783 -0.550000 15.99940
9784 OM 9784 OM OM1 9784 -0.550000 15.99940
9785 OM 9785 OM OM1 9785 -0.550000 15.99940
9786 OM 9786 OM OM1 9786 -0.550000 15.99940
9787 OM 9787 OM OM1 9787 -0.550000 15.99940
9788 OM 9788 OM OM1 9788 -0.550000 15.99940
9789 OM 9789 OM OM1 9789 -0.550000 15.99940
9790 OM 9790 OM OM1 9790 -0.550000 15.99940
9791 OM 9791 OM OM1 9791 -0.550000 15.99940
9792 OM 9792 OM OM1 9792 -0.550000 15.99940
9793 OM 9793 OM OM1 9793 -0.550000 15.99940
9794 OM 9794 OM OM1 9794 -0.550000 15.99940
9795 OM 9795 OM OM1 9795 -0.550000 15.99940
9796 OM 9796 OM OM1 9796 -0.550000 15.99940
9797 OM 9797 OM OM1 9797 -0.550000 15.99940
9798 OM 9798 OM OM1 9798 -0.550000 15.99940
9799 OM 9799 OM OM1 9799 -0.550000 15.99940
9800 OM 9800 OM OM1 9800 -0.550000 15.99940
9801 OM 9801 OM OM1 9801 -0.550000 15.99940
9802 OM 9802 OM OM1 9802 -0.550000 15.99940
9803 OM 9803 OM OM1 9803 -0.550000 15.99940
9804 OM 9804 OM OM1 9804 -0.550000 15.99940
9805 OM 9805 OM OM1 9805 -0.550000 15.99940
9806 OM 9806 OM OM1 9806 -0.550000 15.99940
9807 OM 9807 OM OM1 9807 -0.550000 15.99940
9808 OM 9808 OM OM1 9808 -0.550000 15.99940
9809 OM 9809 OM OM1 9809 -0.550000 15.99940
9810 OM 9810 OM OM1 9810 -0.550000 15.99940
9811 OM 9811 OM OM1 9811 -0.550000 15.99940
9812 OM 9812 OM OM1 9812 -0.550000 15.99940
9813 OM 9813 OM OM1 9813 -0.550000 15.99940
9814 OM 9814 OM OM1 9814 -0.550000 15.99940
9815 OM 9815 OM OM1 9815 -0.550000 15.99940
9816 OM 9816 OM OM1 9816 -0.550000 15.99940
9817 OM 9817 OM OM1 9817 -0.550000 15.99940
9818 OM 9818 OM OM1 9818 -0.550000 15.99940
9819 OM 9819 OM OM1 9819 -0.550000 15.99940
9820 OM 9820 OM OM1 9820 -0.550000 15.99940
9821 OM 9821 OM OM1 9821 -0.550000 15.99940
9822 OM 9822 OM OM1 9822 -0.550000 15.99940
9823 OM 9823 OM OM1 9823 -0.550000 15.99940
9824 OM 9824 OM OM1 9824 -0.550000 15.99940
9825 OM 9825 OM OM1 9825 -0.550000 15.99940
9826 OM 9826 OM OM1 9826 -0.550000 15.99940
9827 OM 9827 OM OM1 9827 -0.550000 15.99940
9828 OM 9828 OM OM1 9828 -0.550000 15.99940
9829 OM 9829 OM OM1 9829 -0.550000 15.99940
9830 OM 9830 OM OM1 9830 -0.550000 15.99940
9831 OM 9831 OM OM1 9831 -0.550000 15.99940
9832 OM 9832 OM OM1 9832 -0.550000 15.99940
9833 OM 9833 OM OM1 9833 -0.550000 15.99940
9834 OM 9834 OM OM1 9834 -0.550000 15.99940
9835 OM 9835 OM OM1 9835 -0.550000 15.99940
9836 OM 9836 OM OM1 9836 -0.550000 15.99940
9837 OM 9837 OM OM1 9837 -0.550000 15.99940
9838 OM 9838 OM OM1 9838 -0.550000 15.99940
9839 OM 9839 OM OM1 9839 -0.550000 15.99940
9840 OM 9840 OM OM1 9840 -0.550000 15.99940
9841 OM 9841 OM OM1 9841 -0.550000 15.99940
9842 OM 9842 OM OM1 9842 -0.550000 15.99940
9843 OM 9843 OM OM1 9843 -0.550000 15.99940
9844 OM 9844 OM OM1 9844 -0.550000 15.99940
9845 OM 9845 OM OM1 9845 -0.550000 15.99940
9846 OM 9846 OM OM1 9846 -0.550000 15.99940
9847 OM 9847 OM OM1 9847 -0.550000 15.99940
9848 OM 9848 OM OM1 9848 -0.550000 15.99940
9849 OM 9849 OM OM1 9849 -0.550000 15.99940
9850 OM 9850 OM OM1 9850 -0.550000 15.99940
9851 OM 9851 OM OM1 9851 -0.550000 15.99940
9852 OM 9852 OM OM1 9852 -0.550000 15.99940
9853 OM 9853 OM OM1 9853 -0.550000 15.99940
9854 OM 9854 OM OM1 9854 -0.550000 15.99940
9855 OM 9855 OM OM1 9855 -0.550000 15.99940
9856 OM 9856 OM OM1 9856 -0.550000 15.99940
9857 OM 9857 OM OM1 9857 -0.550000 15.99940
9858 OM 9858 OM OM1 9858 -0.550000 15.99940
9859 OM 9859 OM OM1 9859 -0.550000 15.99940
9860 OM 9860 OM OM1 9860 -0.550000 15.99940
9861 OM 9861 OM OM1 9861 -0.550000 15.99940
9862 OM 9862 OM OM1 9862 -0.550000 15.99940
9863 OM 9863 OM OM1 9863 -0.550000 15.99940
9864 OM 9864 OM OM1 9864 -0.550000 15.99940
9865 OM 9865 OM OM1 9865 -0.550000 15.99940
9866 OM 9866 OM OM1 9866 -0.550000 15.99940
9867 OM 9867 OM OM1 9867 -0.550000 15.99940
9868 OM 9868 OM OM1 9868 -0.550000 15.99940
9869 OM 9869 OM OM1 9869 -0.550000 15.99940
9870 OM 9870 OM OM1 9870 -0.550000 15.99940
9871 OM 9871 OM OM1 9871 -0.550000 15.99940
9872 OM 9872 OM OM1 9872 -0.550000 15.99940
9873 OM 9873 OM OM1 9873 -0.550000 15.99940
9874 OM 9874 OM OM1 9874 -0.550000 15.99940
9875 OM 9875 OM OM1 9875 -0.550000 15.99940
9876 OM 9876 OM OM1 9876 -0.550000 15.99940
9877 OM 9877 OM OM1 9877 -0.550000 15.99940
9878 OM 9878 OM OM1 9878 -0.550000 15.99940
9879 OM 9879 OM OM1 9879 -0.550000 15.99940
9880 OM 9880 OM OM1 9880 -0.550000 15.99940
9881 OM 9881 OM OM1 9881 -0.550000 15.99940
9882 OM 9882 OM OM1 9882 -0.550000 15.99940
9883 OM 9883 OM OM1 9883 -0.550000 15.99940
9884 OM 9884 OM OM1 9884 -0.550000 15.99940
9885 OM 9885 OM OM1 9885 -0.550000 15.99940
9886 OM 9886 OM OM1 9886 -0.550000 15.99940
9887 OM 9887 OM OM1 9887 -0.550000 15.99940
9888 OM 9888 OM OM1 9888 -0.550000 15.99940
9889 OM 9889 OM OM1 9889 -0.550000 15.99940
9890 OM 9890 OM OM1 9890 -0.550000 15.99940
9891 OM 9891 OM OM1 9891 -0.550000 15.99940
9892 OM 9892 OM OM1 9892 -0.550000 15.99940
9893 OM 9893 OM OM1 9893 -0.550000 15.99940
9894 OM 9894 OM OM1 9894 -0.550000 15.99940
9895 OM 9895 OM OM1 9895 -0.550000 15.99940
9896 OM 9896 OM OM1 9896 -0.550000 15.99940
9897 OM 9897 OM OM1 9897 -0.550000 15.99940
9898 OM 9898 OM OM1 9898 -0.550000 15.99940
9899 OM 9899 OM OM1 9899 -0.550000 15.99940
9900 OM 9900 OM OM1 9900 -0.550000 15.99940
9901 OM 9901 OM OM1 9901 -0.550000 15.99940
9902 OM 9902 OM OM1 9902 -0.550000 15.99940
9903 OM 9903 OM OM1 9903 -0.550000 15.99940
9904 OM 9904 OM OM1 9904 -0.550000 15.99940
9905 OM 9905 OM OM1 9905 -0.550000 15.99940
9906 OM 9906 OM OM1 9906 -0.550000 15.99940
9907 OM 9907 OM OM1 9907 -0.550000 15.99940
9908 OM 9908 OM OM1 9908 -0.550000 15.99940
9909 OM 9909 OM OM1 9909 -0.550000 15.99940
9910 OM 9910 OM OM1 9910 -0.550000 15.99940
9911 OM 9911 OM OM1 9911 -0.550000 15.99940
9912 OM 9912 OM OM1 9912 -0.550000 15.99940
9913 OM 9913 OM OM1 9913 -0.550000 15.99940
9914 OM 9914 OM OM1 9914 -0.550000 15.99940
9915 OM 9915 OM OM1 9915 -0.550000 15.99940
9916 OM 9916 OM OM1 9916 -0.550000 15.99940
9917 OM 9917 OM OM1 9917 -0.550000 15.99940
9918 OM 9918 OM OM1 9918 -0.550000 15.99940
9919 OM 9919 OM OM1 9919 -0.550000 15.99940
9920 OM 9920 OM OM1 9920 -0.550000 15.99940
9921 OM 9921 OM OM1 9921 -0.550000 15.99940
9922 OM 9922 OM OM1 9922 -0.550000 15.99940
9923 OM 9923 OM OM1 9923 -0.550000 15.99940
9924 OM 9924 OM OM1 9924 -0.550000 15.99940
9925 OM 9925 OM OM1 9925 -0.550000 15.99940
9926 OM 9926 OM OM1 9926 -0.550000 15.99940
9927 OM 9927 OM OM1 9927 -0.550000 15.99940
9928 OM 9928 OM OM1 9928 -0.550000 15.99940
9929 OM 9929 OM OM1 9929 -0.550000 15.99940
9930 OM 9930 OM OM1 9930 -0.550000 15.99940
9931 OM 9931 OM OM1 9931 -0.550000 15.99940
9932 OM 9932 OM OM1 9932 -0.550000 15.99940
9933 OM 9933 OM OM1 9933 -0.550000 15.99940
9934 OM 9934 OM OM1 9934 -0.550000 15.99940
9935 OM 9935 OM OM1 9935 -0.550000 15.99940
9936 OM 9936 OM OM1 9936 -0.550000 15.99940
9937 OM 9937 OM OM1 9937 -0.550000 15.99940
9938 OM 9938 OM OM1 9938 -0.550000 15.99940
9939 OM 9939 OM OM1 9939 -0.550000 15.99940
9940 OM 9940 OM OM1 9940 -0.550000 15.99940
9941 OM 9941 OM OM1 9941 -0.550000 15.99940
9942 OM 9942 OM OM1 9942 -0.550000 15.99940
9943 OM 9943 OM OM1 9943 -0.550000 15.99940
9944 OM 9944 OM OM1 9944 -0.550000 15.99940
9945 OM 9945 OM OM1 9945 -0.550000 15.99940
9946 OM 9946 OM OM1 9946 -0.550000 15.99940
9947 OM 9947 OM OM1 9947 -0.550000 15.99940
9948 OM 9948 OM OM1 9948 -0.550000 15.99940
9949 OM 9949 OM OM1 9949 -0.550000 15.99940
9950 OM 9950 OM OM1 9950 -0.550000 15.99940
9951 OM 9951 OM OM1 9951 -0.550000 15.99940
9952 OM 9952 OM OM1 9952 -0.550000 15.99940
9953 OM 9953 OM OM1 9953 -0.550000 15.99940
9954 OM 9954 OM OM1 9954 -0.550000 15.99940
9955 OM 9955 OM OM1 9955 -0.550000 15.99940
9956 OM 9956 OM OM1 9956 -0.550000 15.99940
9957 OM 9957 OM OM1 9957 -0.550000 15.99940
9958 OM 9958 OM OM1 9958 -0.550000 15.99940
9959 OM 9959 OM OM1 9959 -0.550000 15.99940
9960 OM 9960 OM OM1 9960 -0.550000 15.99940
9961 OM 9961 OM OM1 9961 -0.550000 15.99940
9962 OM 9962 OM OM1 9962 -0.550000 15.99940
9963 OM 9963 OM OM1 9963 -0.550000 15.99940
9964 OM 9964 OM OM1 9964 -0.550000 15.99940
9965 OM 9965 OM OM1 9965 -0.550000 15.99940
9966 OM 9966 OM OM1 9966 -0.550000 15.99940
9967 OM 9967 OM OM1 9967 -0.550000 15.99940
9968 OM 9968 OM OM1 9968 -0.550000 15.99940
9969 OM 9969 OM OM1 9969 -0.550000 15.99940
9970 OM 9970 OM OM1 9970 -0.550000 15.99940
9971 OM 9971 OM OM1 9971 -0.550000 15.99940
9972 OM 9972 OM OM1 9972 -0.550000 15.99940
9973 OM 9973 OM OM1 9973 -0.550000 15.99940
9974 OM 9974 OM OM1 9974 -0.550000 15.99940
9975 OM 9975 OM OM1 9975 -0.550000 15.99940
9976 OM 9976 OM OM1 9976 -0.550000 15.99940
9977 OM 9977 OM OM1 9977 -0.550000 15.99940
9978 OM 9978 OM OM1 9978 -0.550000 15.99940
9979 OM 9979 OM OM1 9979 -0.550000 15.99940
9980 OM 9980 OM OM1 9980 -0.550000 15.99940
9981 OM 9981 OM OM1 9981 -0.550000 15.99940
9982 OM 9982 OM OM1 9982 -0.550000 15.99940
9983 OM 9983 OM OM1 9983 -0.550000 15.99940
9984 OM 9984 OM OM1 9984 -0.550000 15.99940
9985 OM 9985 OM OM1 9985 -0.550000 15.99940
9986 OM 9986 OM OM1 9986 -0.550000 15.99940
9987 OM 9987 OM OM1 9987 -0.550000 15.99940
9988 OM 9988 OM OM1 9988 -0.550000 15.99940
9989 OM 9989 OM OM1 9989 -0.550000 15.99940
9990 OM 9990 OM OM1 9990 -0.550000 15.99940
9991 OM 9991 OM OM1 9991 -0.550000 15.99940
9992 OM 9992 OM OM1 9992 -0.550000 15.99940
9993 OM 9993 OM OM1 9993 -0.550000 15.99940
9994 OM 9994 OM OM1 9994 -0.550000 15.99940
9995 OM 9995 OM OM1 9995 -0.550000 15.99940
9996 OM 9996 OM OM1 9996 -0.550000 15.99940
9997 OM 9997 OM OM1 9997 -0.550000 15.99940
9998 OM 9998 OM OM1 9998 -0.550000 15.99940
9999 OM 9999 OM OM1 9999 -0.550000 15.99940
10000 OM 10000 OM OM1 10000 -0.550000 15.99940
10001 OM 10001 OM OM1 10001 -0.550000 15.99940
10002 OM 10002 OM OM1 10002 -0.550000 15.99940
10003 OM 10003 OM OM1 10003 -0.550000 15.99940
10004 OM 10004 OM OM1 10004 -0.550000 15.99940
10005 OM 10005 OM OM1 10005 -0.550000 15.99940
10006 OM 10006 OM OM1 10006 -0.550000 15.99940
10007 OM 10007 OM OM1 10007 -0.550000 15.99940
10008 OM 10008 OM OM1 10008 -0.550000 15.99940
10009 OM 10009 OM OM1 10009 -0.550000 15.99940
10010 OM 10010 OM OM1 10010 -0.550000 15.99940
10011 OM 10011 OM OM1 10011 -0.550000 15.99940
10012 OM 10012 OM OM1 10012 -0.550000 15.99940
10013 OM 10013 OM OM1 10013 -0.550000 15.99940
10014 OM 10014 OM OM1 10014 -0.550000 15.99940
10015 OM 10015 OM OM1 10015 -0.550000 15.99940
10016 OM 10016 OM OM1 10016 -0.550000 15.99940
10017 OM 10017 OM OM1 10017 -0.550000 15.99940
10018 OM 10018 OM OM1 10018 -0.550000 15.99940
10019 OM 10019 OM OM1 10019 -0.550000 15.99940
10020 OM 10020 OM OM1 10020 -0.550000 15.99940
10021 OM 10021 OM OM1 10021 -0.550000 15.99940
10022 OM 10022 OM OM1 10022 -0.550000 15.99940
10023 OM 10023 OM OM1 10023 -0.550000 15.99940
10024 OM 10024 OM OM1 10024 -0.550000 15.99940
10025 OM 10025 OM OM1 10025 -0.550000 15.99940
10026 OM 10026 OM OM1 10026 -0.550000 15.99940
10027 OM 10027 OM OM1 10027 -0.550000 15.99940
10028 OM 10028 OM OM1 10028 -0.550000 15.99940
10029 OM 10029 OM OM1 10029 -0.550000 15.99940
10030 OM 10030 OM OM1 10030 -0.550000 15.99940
10031 OM 10031 OM OM1 10031 -0.550000 15.99940
10032 OM 10032 OM OM1 10032 -0.550000 15.99940
10033 OM 10033 OM OM1 10033 -0.550000 15.99940
10034 OM 10034 OM OM1 10034 -0.550000 15.99940
10035 OM 10035 OM OM1 10035 -0.550000 15.99940
10036 OM 10036 OM OM1 10036 -0.550000 15.99940
10037 OM 10037 OM OM1 10037 -0.550000 15.99940
10038 OM 10038 OM OM1 10038 -0.550000 15.99940
10039 OM 10039 OM OM1 10039 -0.550000 15.99940
10040 OM 10040 OM OM1 10040 -0.550000 15.99940
10041 OM 10041 OM OM1 10041 -0.550000 15.99940
10042 OM 10042 OM OM1 10042 -0.550000 15.99940
10043 OM 10043 OM OM1 10043 -0.550000 15.99940
10044 OM 10044 OM OM1 10044 -0.550000 15.99940
10045 OM 10045 OM OM1 10045 -0.550000 15.99940
10046 OM 10046 OM OM1 10046 -0.550000 15.99940
10047 OM 10047 OM OM1 10047 -0.550000 15.99940
10048 OM 10048 OM OM1 10048 -0.550000 15.99940
10049 OM 10049 OM OM1 10049 -0.550000 15.99940
10050 OM 10050 OM OM1 10050 -0.550000 15.99940
10051 OM 10051 OM OM1 10051 -0.550000 15.99940
10052 OM 10052 OM OM1 10052 -0.550000 15.99940
10053 OM 10053 OM OM1 10053 -0.550000 15.99940
10054 OM 10054 OM OM1 10054 -0.550000 15.99940
10055 OM 10055 OM OM1 10055 -0.550000 15.99940
10056 OM 10056 OM OM1 10056 -0.550000 15.99940
10057 OM 10057 OM OM1 10057 -0.550000 15.99940
10058 OM 10058 OM OM1 10058 -0.550000 15.99940
10059 OM 10059 OM OM1 10059 -0.550000 15.99940
10060 OM 10060 OM OM1 10060 -0.550000 15.99940
10061 OM 10061 OM OM1 10061 -0.550000 15.99940
10062 OM 10062 OM OM1 10062 -0.550000 15.99940
10063 OM 10063 OM OM1 10063 -0.550000 15.99940
10064 OM 10064 OM OM1 10064 -0.550000 15.99940
10065 OM 10065 OM OM1 10065 -0.550000 15.99940
10066 OM 10066 OM OM1 10066 -0.550000 15.99940
10067 OM 10067 OM OM1 10067 -0.550000 15.99940
10068 OM 10068 OM OM1 10068 -0.550000 15.99940
10069 OM 10069 OM OM1 10069 -0.550000 15.99940
10070 OM 10070 OM OM1 10070 -0.550000 15.99940
10071 OM 10071 OM OM1 10071 -0.550000 15.99940
10072 OM 10072 OM OM1 10072 -0.550000 15.99940
10073 OM 10073 OM OM1 10073 -0.550000 15.99940
10074 OM 10074 OM OM1 10074 -0.550000 15.99940
10075 OM 10075 OM OM1 10075 -0.550000 15.99940
10076 OM 10076 OM OM1 10076 -0.550000 15.99940
10077 OM 10077 OM OM1 10077 -0.550000 15.99940
10078 OM 10078 OM OM1 10078 -0.550000 15.99940
10079 OM 10079 OM OM1 10079 -0.550000 15.99940
10080 OM 10080 OM OM1 10080 -0.550000 15.99940
10081 OM 10081 OM OM1 10081 -0.550000 15.99940
10082 OM 10082 OM OM1 10082 -0.550000 15.99940
10083 OM 10083 OM OM1 10083 -0.550000 15.99940
10084 OM 10084 OM OM1 10084 -0.550000 15.99940
10085 OM 10085 OM OM1 10085 -0.550000 15.99940
10086 OM 10086 OM OM1 10086 -0.550000 15.99940
10087 OM 10087 OM OM1 10087 -0.550000 15.99940
10088 OM 10088 OM OM1 10088 -0.550000 15.99940
10089 OM 10089 OM OM1 10089 -0.550000 15.99940
10090 OM 10090 OM OM1 10090 -0.550000 15.99940
10091 OM 10091 OM OM1 10091 -0.550000 15.99940
10092 OM 10092 OM OM1 10092 -0.550000 15.99940
10093 OM 10093 OM OM1 10093 -0.550000 15.99940
10094 OM 10094 OM OM1 10094 -0.550000 15.99940
10095 OM 10095 OM OM1 10095 -0.550000 15.99940
10096 OM 10096 OM OM1 10096 -0.550000 15.99940
10097 OM 10097 OM OM1 10097 -0.550000 15.99940
10098 OM 10098 OM OM1 10098 -0.550000 15.99940
10099 OM 10099 OM OM1 10099 -0.550000 15.99940
10100 OM 10100 OM OM1 10100 -0.550000 15.99940
10101 OM 10101 OM OM1 10101 -0.550000 15.99940
10102 OM 10102 OM OM1 10102 -0.550000 15.99940
10103 OM 10103 OM OM1 10103 -0.550000 15.99940
10104 OM 10104 OM OM1 10104 -0.550000 15.99940
10105 OM 10105 OM OM1 10105 -0.550000 15.99940
10106 OM 10106 OM OM1 10106 -0.550000 15.99940
10107 OM 10107 OM OM1 10107 -0.550000 15.99940
10108 OM 10108 OM OM1 10108 -0.550000 15.99940
10109 OM 10109 OM OM1 10109 -0.550000 15.99940
10110 OM 10110 OM OM1 10110 -0.550000 15.99940
10111 OM 10111 OM OM1 10111 -0.550000 15.99940
10112 OM 10112 OM OM1 10112 -0.550000 15.99940
10113 OM 10113 OM OM1 10113 -0.550000 15.99940
10114 OM 10114 OM OM1 10114 -0.550000 15.99940
10115 OM 10115 OM OM1 10115 -0.550000 15.99940
10116 OM 10116 OM OM1 10116 -0.550000 15.99940
10117 OM 10117 OM OM1 10117 -0.550000 15.99940
10118 OM 10118 OM OM1 10118 -0.550000 15.99940
10119 OM 10119 OM OM1 10119 -0.550000 15.99940
10120 OM 10120 OM OM1 10120 -0.550000 15.99940
10121 OM 10121 OM OM1 10121 -0.550000 15.99940
10122 OM 10122 OM OM1 10122 -0.550000 15.99940
10123 OM 10123 OM OM1 10123 -0.550000 15.99940
10124 OM 10124 OM OM1 10124 -0.550000 15.99940
10125 OM 10125 OM OM1 10125 -0.550000 15.99940
10126 OM 10126 OM OM1 10126 -0.550000 15.99940
10127 OM 10127 OM OM1 10127 -0.550000 15.99940
10128 OM 10128 OM OM1 10128 -0.550000 15.99940
10129 OM 10129 OM OM1 10129 -0.550000 15.99940
10130 OM 10130 OM OM1 10130 -0.550000 15.99940
10131 OM 10131 OM OM1 10131 -0.550000 15.99940
10132 OM 10132 OM OM1 10132 -0.550000 15.99940
10133 OM 10133 OM OM1 10133 -0.550000 15.99940
10134 OM 10134 OM OM1 10134 -0.550000 15.99940
10135 OM 10135 OM OM1 10135 -0.550000 15.99940
10136 OM 10136 OM OM1 10136 -0.550000 15.99940
10137 OM 10137 OM OM1 10137 -0.550000 15.99940
10138 OM 10138 OM OM1 10138 -0.550000 15.99940
10139 OM 10139 OM OM1 10139 -0.550000 15.99940
10140 OM 10140 OM OM1 10140 -0.550000 15.99940
10141 OM 10141 OM OM1 10141 -0.550000 15.99940
10142 OM 10142 OM OM1 10142 -0.550000 15.99940
10143 OM 10143 OM OM1 10143 -0.550000 15.99940
10144 OM 10144 OM OM1 10144 -0.550000 15.99940
10145 OM 10145 OM OM1 10145 -0.550000 15.99940
10146 OM 10146 OM OM1 10146 -0.550000 15.99940
10147 OM 10147 OM OM1 10147 -0.550000 15.99940
10148 OM 10148 OM OM1 10148 -0.550000 15.99940
10149 OM 10149 OM OM1 10149 -0.550000 15.99940
10150 OM 10150 OM OM1 10150 -0.550000 15.99940
10151 OM 10151 OM OM1 10151 -0.550000 15.99940
10152 OM 10152 OM OM1 10152 -0.550000 15.99940
10153 OM 10153 OM OM1 10153 -0.550000 15.99940
10154 OM 10154 OM OM1 10154 -0.550000 15.99940
10155 OM 10155 OM OM1 10155 -0.550000 15.99940
10156 OM 10156 OM OM1 10156 -0.550000 15.99940
10157 OM 10157 OM OM1 10157 -0.550000 15.99940
10158 OM 10158 OM OM1 10158 -0.550000 15.99940
10159 OM 10159 OM OM1 10159 -0.550000 15.99940
10160 OM 10160 OM OM1 10160 -0.550000 15.99940
10161 OM 10161 OM OM1 10161 -0.550000 15.99940
10162 OM 10162 OM OM1 10162 -0.550000 15.99940
10163 OM 10163 OM OM1 10163 -0.550000 15.99940
10164 OM 10164 OM OM1 10164 -0.550000 15.99940
10165 OM 10165 OM OM1 10165 -0.550000 15.99940
10166 OM 10166 OM OM1 10166 -0.550000 15.99940
10167 OM 10167 OM OM1 10167 -0.550000 15.99940
10168 OM 10168 OM OM1 10168 -0.550000 15.99940
10169 OM 10169 OM OM1 10169 -0.550000 15.99940
10170 OM 10170 OM OM1 10170 -0.550000 15.99940
10171 OM 10171 OM OM1 10171 -0.550000 15.99940
10172 OM 10172 OM OM1 10172 -0.550000 15.99940
10173 OM 10173 OM OM1 10173 -0.550000 15.99940
10174 OM 10174 OM OM1 10174 -0.550000 15.99940
10175 OM 10175 OM OM1 10175 -0.550000 15.99940
10176 OM 10176 OM OM1 10176 -0.550000 15.99940
10177 OM 10177 OM OM1 10177 -0.550000 15.99940
10178 OM 10178 OM OM1 10178 -0.550000 15.99940
10179 OM 10179 OM OM1 10179 -0.550000 15.99940
10180 OM 10180 OM OM1 10180 -0.550000 15.99940
10181 OM 10181 OM OM1 10181 -0.550000 15.99940
10182 OM 10182 OM OM1 10182 -0.550000 15.99940
10183 OM 10183 OM OM1 10183 -0.550000 15.99940
10184 OM 10184 OM OM1 10184 -0.550000 15.99940
10185 OM 10185 OM OM1 10185 -0.550000 15.99940
10186 OM 10186 OM OM1 10186 -0.550000 15.99940
10187 OM 10187 OM OM1 10187 -0.550000 15.99940
10188 OM 10188 OM OM1 10188 -0.550000 15.99940
10189 OM 10189 OM OM1 10189 -0.550000 15.99940
10190 OM 10190 OM OM1 10190 -0.550000 15.99940
10191 OM 10191 OM OM1 10191 -0.550000 15.99940
10192 OM 10192 OM OM1 10192 -0.550000 15.99940
10193 OM 10193 OM OM1 10193 -0.550000 15.99940
10194 OM 10194 OM OM1 10194 -0.550000 15.99940
10195 OM 10195 OM OM1 10195 -0.550000 15.99940
10196 OM 10196 OM OM1 10196 -0.550000 15.99940
10197 OM 10197 OM OM1 10197 -0.550000 15.99940
10198 OM 10198 OM OM1 10198 -0.550000 15.99940
10199 OM 10199 OM OM1 10199 -0.550000 15.99940
10200 OM 10200 OM OM1 10200 -0.550000 15.99940
10201 OM 10201 OM OM1 10201 -0.550000 15.99940
10202 OM 10202 OM OM1 10202 -0.550000 15.99940
10203 OM 10203 OM OM1 10203 -0.550000 15.99940
10204 OM 10204 OM OM1 10204 -0.550000 15.99940
10205 OM 10205 OM OM1 10205 -0.550000 15.99940
10206 OM 10206 OM OM1 10206 -0.550000 15.99940
10207 OM 10207 OM OM1 10207 -0.550000 15.99940
10208 OM 10208 OM OM1 10208 -0.550000 15.99940
10209 OM 10209 OM OM1 10209 -0.550000 15.99940
10210 OM 10210 OM OM1 10210 -0.550000 15.99940
10211 OM 10211 OM OM1 10211 -0.550000 15.99940
10212 OM 10212 OM OM1 10212 -0.550000 15.99940
10213 OM 10213 OM OM1 10213 -0.550000 15.99940
10214 OM 10214 OM OM1 10214 -0.550000 15.99940
10215 OM 10215 OM OM1 10215 -0.550000 15.99940
10216 OM 10216 OM OM1 10216 -0.550000 15.99940
10217 OM 10217 OM OM1 10217 -0.550000 15.99940
10218 OM 10218 OM OM1 10218 -0.550000 15.99940
10219 OM 10219 OM OM1 10219 -0.550000 15.99940
10220 OM 10220 OM OM1 10220 -0.550000 15.99940
10221 OM 10221 OM OM1 10221 -0.550000 15.99940
10222 OM 10222 OM OM1 10222 -0.550000 15.99940
10223 OM 10223 OM OM1 10223 -0.550000 15.99940
10224 OM 10224 OM OM1 10224 -0.550000 15.99940
10225 OM 10225 OM OM1 10225 -0.550000 15.99940
10226 OM 10226 OM OM1 10226 -0.550000 15.99940
10227 OM 10227 OM OM1 10227 -0.550000 15.99940
10228 OM 10228 OM OM1 10228 -0.550000 15.99940
10229 OM 10229 OM OM1 10229 -0.550000 15.99940
10230 OM 10230 OM OM1 10230 -0.550000 15.99940
10231 OM 10231 OM OM1 10231 -0.550000 15.99940
10232 OM 10232 OM OM1 10232 -0.550000 15.99940
10233 OM 10233 OM OM1 10233 -0.550000 15.99940
10234 OM 10234 OM OM1 10234 -0.550000 15.99940
10235 OM 10235 OM OM1 10235 -0.550000 15.99940
10236 OM 10236 OM OM1 10236 -0.550000 15.99940
10237 OM 10237 OM OM1 10237 -0.550000 15.99940
10238 OM 10238 OM OM1 10238 -0.550000 15.99940
10239 OM 10239 OM OM1 10239 -0.550000 15.99940
10240 OM 10240 OM OM1 10240 -0.550000 15.99940
10241 OM 10241 OM OM1 10241 -0.550000 15.99940
10242 OM 10242 OM OM1 10242 -0.550000 15.99940
10243 OM 10243 OM OM1 10243 -0.550000 15.99940
10244 OM 10244 OM OM1 10244 -0.550000 15.99940
10245 OM 10245 OM OM1 10245 -0.550000 15.99940
10246 OM 10246 OM OM1 10246 -0.550000 15.99940
10247 OM 10247 OM OM1 10247 -0.550000 15.99940
10248 OM 10248 OM OM1 10248 -0.550000 15.99940
10249 OM 10249 OM OM1 10249 -0.550000 15.99940
10250 OM 10250 OM OM1 10250 -0.550000 15.99940
10251 OM 10251 OM OM1 10251 -0.550000 15.99940
10252 OM 10252 OM OM1 10252 -0.550000 15.99940
10253 OM 10253 OM OM1 10253 -0.550000 15.99940
10254 OM 10254 OM OM1 10254 -0.550000 15.99940
10255 OM 10255 OM OM1 10255 -0.550000 15.99940
10256 OM 10256 OM OM1 10256 -0.550000 15.99940
10257 OM 10257 OM OM1 10257 -0.550000 15.99940
10258 OM 10258 OM OM1 10258 -0.550000 15.99940
10259 OM 10259 OM OM1 10259 -0.550000 15.99940
10260 OM 10260 OM OM1 10260 -0.550000 15.99940
10261 OM 10261 OM OM1 10261 -0.550000 15.99940
10262 OM 10262 OM OM1 10262 -0.550000 15.99940
10263 OM 10263 OM OM1 10263 -0.550000 15.99940
10264 OM 10264 OM OM1 10264 -0.550000 15.99940
10265 OM 10265 OM OM1 10265 -0.550000 15.99940
10266 OM 10266 OM OM1 10266 -0.550000 15.99940
10267 OM 10267 OM OM1 10267 -0.550000 15.99940
10268 OM 10268 OM OM1 10268 -0.550000 15.99940
10269 OM 10269 OM OM1 10269 -0.550000 15.99940
10270 OM 10270 OM OM1 10270 -0.550000 15.99940
10271 OM 10271 OM OM1 10271 -0.550000 15.99940
10272 OM 10272 OM OM1 10272 -0.550000 15.99940
10273 OM 10273 OM OM1 10273 -0.550000 15.99940
10274 OM 10274 OM OM1 10274 -0.550000 15.99940
10275 OM 10275 OM OM1 10275 -0.550000 15.99940
10276 OM 10276 OM OM1 10276 -0.550000 15.99940
10277 OM 10277 OM OM1 10277 -0.550000 15.99940
10278 OM 10278 OM OM1 10278 -0.550000 15.99940
10279 OM 10279 OM OM1 10279 -0.550000 15.99940
10280 OM 10280 OM OM1 10280 -0.550000 15.99940
10281 OM 10281 OM OM1 10281 -0.550000 15.99940
10282 OM 10282 OM OM1 10282 -0.550000 15.99940
10283 OM 10283 OM OM1 10283 -0.550000 15.99940
10284 OM 10284 OM OM1 10284 -0.550000 15.99940
10285 OM 10285 OM OM1 10285 -0.550000 15.99940
10286 OM 10286 OM OM1 10286 -0.550000 15.99940
10287 OM 10287 OM OM1 10287 -0.550000 15.99940
10288 OM 10288 OM OM1 10288 -0.550000 15.99940
10289 OM 10289 OM OM1 10289 -0.550000 15.99940
10290 OM 10290 OM OM1 10290 -0.550000 15.99940
10291 OM 10291 OM OM1 10291 -0.550000 15.99940
10292 OM 10292 OM OM1 10292 -0.550000 15.99940
10293 OM 10293 OM OM1 10293 -0.550000 15.99940
10294 OM 10294 OM OM1 10294 -0.550000 15.99940
10295 OM 10295 OM OM1 10295 -0.550000 15.99940
10296 OM 10296 OM OM1 10296 -0.550000 15.99940
10297 OM 10297 OM OM1 10297 -0.550000 15.99940
10298 OM 10298 OM OM1 10298 -0.550000 15.99940
10299 OM 10299 OM OM1 10299 -0.550000 15.99940
10300 OM 10300 OM OM1 10300 -0.550000 15.99940
10301 OM 10301 OM OM1 10301 -0.550000 15.99940
10302 OM 10302 OM OM1 10302 -0.550000 15.99940
10303 OM 10303 OM OM1 10303 -0.550000 15.99940
10304 OM 10304 OM OM1 10304 -0.550000 15.99940
10305 OM 10305 OM OM1 10305 -0.550000 15.99940
10306 OM 10306 OM OM1 10306 -0.550000 15.99940
10307 OM 10307 OM OM1 10307 -0.550000 15.99940
10308 OM 10308 OM OM1 10308 -0.550000 15.99940
10309 OM 10309 OM OM1 10309 -0.550000 15.99940
10310 OM 10310 OM OM1 10310 -0.550000 15.99940
10311 OM 10311 OM OM1 10311 -0.550000 15.99940
10312 OM 10312 OM OM1 10312 -0.550000 15.99940
10313 OM 10313 OM OM1 10313 -0.550000 15.99940
10314 OM 10314 OM OM1 10314 -0.550000 15.99940
10315 OM 10315 OM OM1 10315 -0.550000 15.99940
10316 OM 10316 OM OM1 10316 -0.550000 15.99940
10317 OM 10317 OM OM1 10317 -0.550000 15.99940
10318 OM 10318 OM OM1 10318 -0.550000 15.99940
10319 OM 10319 OM OM1 10319 -0.550000 15.99940
10320 OM 10320 OM OM1 10320 -0.550000 15.99940
10321 OM 10321 OM OM1 10321 -0.550000 15.99940
10322 OM 10322 OM OM1 10322 -0.550000 15.99940
10323 OM 10323 OM OM1 10323 -0.550000 15.99940
10324 OM 10324 OM OM1 10324 -0.550000 15.99940
10325 OM 10325 OM OM1 10325 -0.550000 15.99940
10326 OM 10326 OM OM1 10326 -0.550000 15.99940
10327 OM 10327 OM OM1 10327 -0.550000 15.99940
10328 OM 10328 OM OM1 10328 -0.550000 15.99940
10329 OM 10329 OM OM1 10329 -0.550000 15.99940
10330 OM 10330 OM OM1 10330 -0.550000 15.99940
10331 OM 10331 OM OM1 10331 -0.550000 15.99940
10332 OM 10332 OM OM1 10332 -0.550000 15.99940
10333 OM 10333 OM OM1 10333 -0.550000 15.99940
10334 OM 10334 OM OM1 10334 -0.550000 15.99940
10335 OM 10335 OM OM1 10335 -0.550000 15.99940
10336 OM 10336 OM OM1 10336 -0.550000 15.99940
10337 OM 10337 OM OM1 10337 -0.550000 15.99940
10338 OM 10338 OM OM1 10338 -0.550000 15.99940
10339 OM 10339 OM OM1 10339 -0.550000 15.99940
10340 OM 10340 OM OM1 10340 -0.550000 15.99940
10341 OM 10341 OM OM1 10341 -0.550000 15.99940
10342 OM 10342 OM OM1 10342 -0.550000 15.99940
10343 OM 10343 OM OM1 10343 -0.550000 15.99940
10344 OM 10344 OM OM1 10344 -0.550000 15.99940
10345 OM 10345 OM OM1 10345 -0.550000 15.99940
10346 OM 10346 OM OM1 10346 -0.550000 15.99940
10347 OM 10347 OM OM1 10347 -0.550000 15.99940
10348 OM 10348 OM OM1 10348 -0.550000 15.99940
10349 OM 10349 OM OM1 10349 -0.550000 15.99940
10350 OM 10350 OM OM1 10350 -0.550000 15.99940
10351 OM 10351 OM OM1 10351 -0.550000 15.99940
10352 OM 10352 OM OM1 10352 -0.550000 15.99940
10353 OM 10353 OM OM1 10353 -0.550000 15.99940
10354 OM 10354 OM OM1 10354 -0.550000 15.99940
10355 OM 10355 OM OM1 10355 -0.550000 15.99940
10356 OM 10356 OM OM1 10356 -0.550000 15.99940
10357 OM 10357 OM OM1 10357 -0.550000 15.99940
10358 OM 10358 OM OM1 10358 -0.550000 15.99940
10359 OM 10359 OM OM1 10359 -0.550000 15.99940
10360 OM 10360 OM OM1 10360 -0.550000 15.99940
10361 OM 10361 OM OM1 10361 -0.550000 15.99940
10362 OM 10362 OM OM1 10362 -0.550000 15.99940
10363 OM 10363 OM OM1 10363 -0.550000 15.99940
10364 OM 10364 OM OM1 10364 -0.550000 15.99940
10365 OM 10365 OM OM1 10365 -0.550000 15.99940
10366 OM 10366 OM OM1 10366 -0.550000 15.99940
10367 OM 10367 OM OM1 10367 -0.550000 15.99940
10368 OM 10368 OM OM1 10368 -0.550000 15.99940
10369 OM 10369 OM OM1 10369 -0.550000 15.99940
10370 OM 10370 OM OM1 10370 -0.550000 15.99940
10371 OM 10371 OM OM1 10371 -0.550000 15.99940
10372 OM 10372 OM OM1 10372 -0.550000 15.99940
10373 OM 10373 OM OM1 10373 -0.550000 15.99940
10374 OM 10374 OM OM1 10374 -0.550000 15.99940
10375 OM 10375 OM OM1 10375 -0.550000 15.99940
10376 OM 10376 OM OM1 10376 -0.550000 15.99940
10377 OM 10377 OM OM1 10377 -0.550000 15.99940
10378 OM 10378 OM OM1 10378 -0.550000 15.99940
10379 OM 10379 OM OM1 10379 -0.550000 15.99940
10380 OM 10380 OM OM1 10380 -0.550000 15.99940
10381 OM 10381 OM OM1 10381 -0.550000 15.99940
10382 OM 10382 OM OM1 10382 -0.550000 15.99940
10383 OM 10383 OM OM1 10383 -0.550000 15.99940
10384 OM 10384 OM OM1 10384 -0.550000 15.99940
10385 OM 10385 OM OM1 10385 -0.550000 15.99940
10386 OM 10386 OM OM1 10386 -0.550000 15.99940
10387 OM 10387 OM OM1 10387 -0.550000 15.99940
10388 OM 10388 OM OM1 10388 -0.550000 15.99940
10389 OM 10389 OM OM1 10389 -0.550000 15.99940
10390 OM 10390 OM OM1 10390 -0.550000 15.99940
10391 OM 10391 OM OM1 10391 -0.550000 15.99940
10392 OM 10392 OM OM1 10392 -0.550000 15.99940
10393 OM 10393 OM OM1 10393 -0.550000 15.99940
10394 OM 10394 OM OM1 10394 -0.550000 15.99940
10395 OM 10395 OM OM1 10395 -0.550000 15.99940
10396 OM 10396 OM OM1 10396 -0.550000 15.99940
10397 OM 10397 OM OM1 10397 -0.550000 15.99940
10398 OM 10398 OM OM1 10398 -0.550000 15.99940
10399 OM 10399 OM OM1 10399 -0.550000 15.99940
10400 OM 10400 OM OM1 10400 -0.550000 15.99940
10401 OM 10401 OM OM1 10401 -0.550000 15.99940
10402 OM 10402 OM OM1 10402 -0.550000 15.99940
10403 OM 10403 OM OM1 10403 -0.550000 15.99940
10404 OM 10404 OM OM1 10404 -0.550000 15.99940
10405 OM 10405 OM OM1 10405 -0.550000 15.99940
10406 OM 10406 OM OM1 10406 -0.550000 15.99940
10407 OM 10407 OM OM1 10407 -0.550000 15.99940
10408 OM 10408 OM OM1 10408 -0.550000 15.99940
10409 OM 10409 OM OM1 10409 -0.550000 15.99940
10410 OM 10410 OM OM1 10410 -0.550000 15.99940
10411 OM 10411 OM OM1 10411 -0.550000 15.99940
10412 OM 10412 OM OM1 10412 -0.550000 15.99940
10413 OM 10413 OM OM1 10413 -0.550000 15.99940
10414 OM 10414 OM OM1 10414 -0.550000 15.99940
10415 OM 10415 OM OM1 10415 -0.550000 15.99940
10416 OM 10416 OM OM1 10416 -0.550000 15.99940
10417 OM 10417 OM OM1 10417 -0.550000 15.99940
10418 OM 10418 OM OM1 10418 -0.550000 15.99940
10419 OM 10419 OM OM1 10419 -0.550000 15.99940
10420 OM 10420 OM OM1 10420 -0.550000 15.99940
10421 OM 10421 OM OM1 10421 -0.550000 15.99940
10422 OM 10422 OM OM1 10422 -0.550000 15.99940
10423 OM 10423 OM OM1 10423 -0.550000 15.99940
10424 OM 10424 OM OM1 10424 -0.550000 15.99940
10425 OM 10425 OM OM1 10425 -0.550000 15.99940
10426 OM 10426 OM OM1 10426 -0.550000 15.99940
10427 OM 10427 OM OM1 10427 -0.550000 15.99940
10428 OM 10428 OM OM1 10428 -0.550000 15.99940
10429 OM 10429 OM OM1 10429 -0.550000 15.99940
10430 OM 10430 OM OM1 10430 -0.550000 15.99940
10431 OM 10431 OM OM1 10431 -0.550000 15.99940
10432 OM 10432 OM OM1 10432 -0.550000 15.99940
10433 OM 10433 OM OM1 10433 -0.550000 15.99940
10434 OM 10434 OM OM1 10434 -0.550000 15.99940
10435 OM 10435 OM OM1 10435 -0.550000 15.99940
10436 OM 10436 OM OM1 10436 -0.550000 15.99940
10437 OM 10437 OM OM1 10437 -0.550000 15.99940
10438 OM 10438 OM OM1 10438 -0.550000 15.99940
10439 OM 10439 OM OM1 10439 -0.550000 15.99940
10440 OM 10440 OM OM1 10440 -0.550000 15.99940
10441 OM 10441 OM OM1 10441 -0.550000 15.99940
10442 OM 10442 OM OM1 10442 -0.550000 15.99940
10443 OM 10443 OM OM1 10443 -0.550000 15.99940
10444 OM 10444 OM OM1 10444 -0.550000 15.99940
10445 OM 10445 OM OM1 10445 -0.550000 15.99940
10446 OM 10446 OM OM1 10446 -0.550000 15.99940
10447 OM 10447 OM OM1 10447 -0.550000 15.99940
10448 OM 10448 OM OM1 10448 -0.550000 15.99940
10449 OM 10449 OM OM1 10449 -0.550000 15.99940
10450 OM 10450 OM OM1 10450 -0.550000 15.99940
10451 OM 10451 OM OM1 10451 -0.550000 15.99940
10452 OM 10452 OM OM1 10452 -0.550000 15.99940
10453 OM 10453 OM OM1 10453 -0.550000 15.99940
10454 OM 10454 OM OM1 10454 -0.550000 15.99940
10455 OM 10455 OM OM1 10455 -0.550000 15.99940
10456 OM 10456 OM OM1 10456 -0.550000 15.99940
10457 OM 10457 OM OM1 10457 -0.550000 15.99940
10458 OM 10458 OM OM1 10458 -0.550000 15.99940
10459 OM 10459 OM OM1 10459 -0.550000 15.99940
10460 OM 10460 OM OM1 10460 -0.550000 15.99940
10461 OM 10461 OM OM1 10461 -0.550000 15.99940
10462 OM 10462 OM OM1 10462 -0.550000 15.99940
10463 OM 10463 OM OM1 10463 -0.550000 15.99940
10464 OM 10464 OM OM1 10464 -0.550000 15.99940
10465 OM 10465 OM OM1 10465 -0.550000 15.99940
10466 OM 10466 OM OM1 10466 -0.550000 15.99940
10467 OM 10467 OM OM1 10467 -0.550000 15.99940
10468 OM 10468 OM OM1 10468 -0.550000 15.99940
10469 OM 10469 OM OM1 10469 -0.550000 15.99940
10470 OM 10470 OM OM1 10470 -0.550000 15.99940
10471 OM 10471 OM OM1 10471 -0.550000 15.99940
10472 OM 10472 OM OM1 10472 -0.550000 15.99940
10473 OM 10473 OM OM1 10473 -0.550000 15.99940
10474 OM 10474 OM OM1 10474 -0.550000 15.99940
10475 OM 10475 OM OM1 10475 -0.550000 15.99940
10476 OM 10476 OM OM1 10476 -0.550000 15.99940
10477 OM 10477 OM OM1 10477 -0.550000 15.99940
10478 OM 10478 OM OM1 10478 -0.550000 15.99940
10479 OM 10479 OM OM1 10479 -0.550000 15.99940
10480 OM 10480 OM OM1 10480 -0.550000 15.99940
10481 OM 10481 OM OM1 10481 -0.550000 15.99940
10482 OM 10482 OM OM1 10482 -0.550000 15.99940
10483 OM 10483 OM OM1 10483 -0.550000 15.99940
10484 OM 10484 OM OM1 10484 -0.550000 15.99940
10485 OM 10485 OM OM1 10485 -0.550000 15.99940
10486 OM 10486 OM OM1 10486 -0.550000 15.99940
10487 OM 10487 OM OM1 10487 -0.550000 15.99940
10488 OM 10488 OM OM1 10488 -0.550000 15.99940
10489 OM 10489 OM OM1 10489 -0.550000 15.99940
10490 OM 10490 OM OM1 10490 -0.550000 15.99940
10491 OM 10491 OM OM1 10491 -0.550000 15.99940
10492 OM 10492 OM OM1 10492 -0.550000 15.99940
10493 OM 10493 OM OM1 10493 -0.550000 15.99940
10494 OM 10494 OM OM1 10494 -0.550000 15.99940
10495 OM 10495 OM OM1 10495 -0.550000 15.99940
10496 OM 10496 OM OM1 10496 -0.550000 15.99940
10497 OM 10497 OM OM1 10497 -0.550000 15.99940
10498 OM 10498 OM OM1 10498 -0.550000 15.99940
10499 OM 10499 OM OM1 10499 -0.550000 15.99940
10500 OM 10500 OM OM1 10500 -0.550000 15.99940
10501 OM 10501 OM OM1 10501 -0.550000 15.99940
10502 OM 10502 OM OM1 10502 -0.550000 15.99940
10503 OM 10503 OM OM1 10503 -0.550000 15.99940
10504 OM 10504 OM OM1 10504 -0.550000 15.99940
10505 OM 10505 OM OM1 10505 -0.550000 15.99940
10506 OM 10506 OM OM1 10506 -0.550000 15.99940
10507 OM 10507 OM OM1 10507 -0.550000 15.99940
10508 OM 10508 OM OM1 10508 -0.550000 15.99940
10509 OM 10509 OM OM1 10509 -0.550000 15.99940
10510 OM 10510 OM OM1 10510 -0.550000 15.99940
10511 OM 10511 OM OM1 10511 -0.550000 15.99940
10512 OM 10512 OM OM1 10512 -0.550000 15.99940
10513 OM 10513 OM OM1 10513 -0.550000 15.99940
10514 OM 10514 OM OM1 10514 -0.550000 15.99940
10515 OM 10515 OM OM1 10515 -0.550000 15.99940
10516 OM 10516 OM OM1 10516 -0.550000 15.99940
10517 OM 10517 OM OM1 10517 -0.550000 15.99940
10518 OM 10518 OM OM1 10518 -0.550000 15.99940
10519 OM 10519 OM OM1 10519 -0.550000 15.99940
10520 OM 10520 OM OM1 10520 -0.550000 15.99940
10521 OM 10521 OM OM1 10521 -0.550000 15.99940
10522 OM 10522 OM OM1 10522 -0.550000 15.99940
10523 OM 10523 OM OM1 10523 -0.550000 15.99940
10524 OM 10524 OM OM1 10524 -0.550000 15.99940
10525 OM 10525 OM OM1 10525 -0.550000 15.99940
10526 OM 10526 OM OM1 10526 -0.550000 15.99940
10527 OM 10527 OM OM1 10527 -0.550000 15.99940
10528 OM 10528 OM OM1 10528 -0.550000 15.99940
10529 OM 10529 OM OM1 10529 -0.550000 15.99940
10530 OM 10530 OM OM1 10530 -0.550000 15.99940
10531 OM 10531 OM OM1 10531 -0.550000 15.99940
10532 OM 10532 OM OM1 10532 -0.550000 15.99940
10533 OM 10533 OM OM1 10533 -0.550000 15.99940
10534 OM 10534 OM OM1 10534 -0.550000 15.99940
10535 OM 10535 OM OM1 10535 -0.550000 15.99940
10536 OM 10536 OM OM1 10536 -0.550000 15.99940
10537 OM 10537 OM OM1 10537 -0.550000 15.99940
10538 OM 10538 OM OM1 10538 -0.550000 15.99940
10539 OM 10539 OM OM1 10539 -0.550000 15.99940
10540 OM 10540 OM OM1 10540 -0.550000 15.99940
10541 OM 10541 OM OM1 10541 -0.550000 15.99940
10542 OM 10542 OM OM1 10542 -0.550000 15.99940
10543 OM 10543 OM OM1 10543 -0.550000 15.99940
10544 OM 10544 OM OM1 10544 -0.550000 15.99940
10545 OM 10545 OM OM1 10545 -0.550000 15.99940
10546 OM 10546 OM OM1 10546 -0.550000 15.99940
10547 OM 10547 OM OM1 10547 -0.550000 15.99940
10548 OM 10548 OM OM1 10548 -0.550000 15.99940
10549 OM 10549 OM OM1 10549 -0.550000 15.99940
10550 OM 10550 OM OM1 10550 -0.550000 15.99940
10551 OM 10551 OM OM1 10551 -0.550000 15.99940
10552 OM 10552 OM OM1 10552 -0.550000 15.99940
10553 OM 10553 OM OM1 10553 -0.550000 15.99940
10554 OM 10554 OM OM1 10554 -0.550000 15.99940
10555 OM 10555 OM OM1 10555 -0.550000 15.99940
10556 OM 10556 OM OM1 10556 -0.550000 15.99940
10557 OM 10557 OM OM1 10557 -0.550000 15.99940
10558 OM 10558 OM OM1 10558 -0.550000 15.99940
10559 OM 10559 OM OM1 10559 -0.550000 15.99940
10560 OM 10560 OM OM1 10560 -0.550000 15.99940
10561 OM 10561 OM OM1 10561 -0.550000 15.99940
10562 OM 10562 OM OM1 10562 -0.550000 15.99940
10563 OM 10563 OM OM1 10563 -0.550000 15.99940
10564 OM 10564 OM OM1 10564 -0.550000 15.99940
10565 OM 10565 OM OM1 10565 -0.550000 15.99940
10566 OM 10566 OM OM1 10566 -0.550000 15.99940
10567 OM 10567 OM OM1 10567 -0.550000 15.99940
10568 OM 10568 OM OM1 10568 -0.550000 15.99940
10569 OM 10569 OM OM1 10569 -0.550000 15.99940
10570 OM 10570 OM OM1 10570 -0.550000 15.99940
10571 OM 10571 OM OM1 10571 -0.550000 15.99940
10572 OM 10572 OM OM1 10572 -0.550000 15.99940
10573 OM 10573 OM OM1 10573 -0.550000 15.99940
10574 OM 10574 OM OM1 10574 -0.550000 15.99940
10575 OM 10575 OM OM1 10575 -0.550000 15.99940
10576 OM 10576 OM OM1 10576 -0.550000 15.99940
10577 OM 10577 OM OM1 10577 -0.550000 15.99940
10578 OM 10578 OM OM1 10578 -0.550000 15.99940
10579 OM 10579 OM OM1 10579 -0.550000 15.99940
10580 OM 10580 OM OM1 10580 -0.550000 15.99940
10581 OM 10581 OM OM1 10581 -0.550000 15.99940
10582 OM 10582 OM OM1 10582 -0.550000 15.99940
10583 OM 10583 OM OM1 10583 -0.550000 15.99940
10584 OM 10584 OM OM1 10584 -0.550000 15.99940
10585 OM 10585 OM OM1 10585 -0.550000 15.99940
10586 OM 10586 OM OM1 10586 -0.550000 15.99940
10587 OM 10587 OM OM1 10587 -0.550000 15.99940
10588 OM 10588 OM OM1 10588 -0.550000 15.99940
10589 OM 10589 OM OM1 10589 -0.550000 15.99940
10590 OM 10590 OM OM1 10590 -0.550000 15.99940
10591 OM 10591 OM OM1 10591 -0.550000 15.99940
10592 OM 10592 OM OM1 10592 -0.550000 15.99940
10593 OM 10593 OM OM1 10593 -0.550000 15.99940
10594 OM 10594 OM OM1 10594 -0.550000 15.99940
10595 OM 10595 OM OM1 10595 -0.550000 15.99940
10596 OM 10596 OM OM1 10596 -0.550000 15.99940
10597 OM 10597 OM OM1 10597 -0.550000 15.99940
10598 OM 10598 OM OM1 10598 -0.550000 15.99940
10599 OM 10599 OM OM1 10599 -0.550000 15.99940
10600 OM 10600 OM OM1 10600 -0.550000 15.99940
10601 OM 10601 OM OM1 10601 -0.550000 15.99940
10602 OM 10602 OM OM1 10602 -0.550000 15.99940
10603 OM 10603 OM OM1 10603 -0.550000 15.99940
10604 OM 10604 OM OM1 10604 -0.550000 15.99940
10605 OM 10605 OM OM1 10605 -0.550000 15.99940
10606 OM 10606 OM OM1 10606 -0.550000 15.99940
10607 OM 10607 OM OM1 10607 -0.550000 15.99940
10608 OM 10608 OM OM1 10608 -0.550000 15.99940
10609 OM 10609 OM OM1 10609 -0.550000 15.99940
10610 OM 10610 OM OM1 10610 -0.550000 15.99940
10611 OM 10611 OM OM1 10611 -0.550000 15.99940
10612 OM 10612 OM OM1 10612 -0.550000 15.99940
10613 OM 10613 OM OM1 10613 -0.550000 15.99940
10614 OM 10614 OM OM1 10614 -0.550000 15.99940
10615 OM 10615 OM OM1 10615 -0.550000 15.99940
10616 OM 10616 OM OM1 10616 -0.550000 15.99940
10617 OM 10617 OM OM1 10617 -0.550000 15.99940
10618 OM 10618 OM OM1 10618 -0.550000 15.99940
10619 OM 10619 OM OM1 10619 -0.550000 15.99940
10620 OM 10620 OM OM1 10620 -0.550000 15.99940
10621 OM 10621 OM OM1 10621 -0.550000 15.99940
10622 OM 10622 OM OM1 10622 -0.550000 15.99940
10623 OM 10623 OM OM1 10623 -0.550000 15.99940
10624 OM 10624 OM OM1 10624 -0.550000 15.99940
10625 OM 10625 OM OM1 10625 -0.550000 15.99940
10626 OM 10626 OM OM1 10626 -0.550000 15.99940
10627 OM 10627 OM OM1 10627 -0.550000 15.99940
10628 OM 10628 OM OM1 10628 -0.550000 15.99940
10629 OM 10629 OM OM1 10629 -0.550000 15.99940
10630 OM 10630 OM OM1 10630 -0.550000 15.99940
10631 OM 10631 OM OM1 10631 -0.550000 15.99940
10632 OM 10632 OM OM1 10632 -0.550000 15.99940
10633 OM 10633 OM OM1 10633 -0.550000 15.99940
10634 OM 10634 OM OM1 10634 -0.550000 15.99940
10635 OM 10635 OM OM1 10635 -0.550000 15.99940
10636 OM 10636 OM OM1 10636 -0.550000 15.99940
10637 OM 10637 OM OM1 10637 -0.550000 15.99940
10638 OM 10638 OM OM1 10638 -0.550000 15.99940
10639 OM 10639 OM OM1 10639 -0.550000 15.99940
10640 OM 10640 OM OM1 10640 -0.550000 15.99940
10641 OM 10641 OM OM1 10641 -0.550000 15.99940
10642 OM 10642 OM OM1 10642 -0.550000 15.99940
10643 OM 10643 OM OM1 10643 -0.550000 15.99940
10644 OM 10644 OM OM1 10644 -0.550000 15.99940
10645 OM 10645 OM OM1 10645 -0.550000 15.99940
10646 OM 10646 OM OM1 10646 -0.550000 15.99940
10647 OM 10647 OM OM1 10647 -0.550000 15.99940
10648 OM 10648 OM OM1 10648 -0.550000 15.99940
10649 OM 10649 OM OM1 10649 -0.550000 15.99940
10650 OM 10650 OM OM1 10650 -0.550000 15.99940
10651 OM 10651 OM OM1 10651 -0.550000 15.99940
10652 OM 10652 OM OM1 10652 -0.550000 15.99940
10653 OM 10653 OM OM1 10653 -0.550000 15.99940
10654 OM 10654 OM OM1 10654 -0.550000 15.99940
10655 OM 10655 OM OM1 10655 -0.550000 15.99940
10656 OM 10656 OM OM1 10656 -0.550000 15.99940
10657 OM 10657 OM OM1 10657 -0.550000 15.99940
10658 OM 10658 OM OM1 10658 -0.550000 15.99940
10659 OM 10659 OM OM1 10659 -0.550000 15.99940
10660 OM 10660 OM OM1 10660 -0.550000 15.99940
10661 OM 10661 OM OM1 10661 -0.550000 15.99940
10662 OM 10662 OM OM1 10662 -0.550000 15.99940
10663 OM 10663 OM OM1 10663 -0.550000 15.99940
10664 OM 10664 OM OM1 10664 -0.550000 15.99940
10665 OM 10665 OM OM1 10665 -0.550000 15.99940
10666 OM 10666 OM OM1 10666 -0.550000 15.99940
10667 OM 10667 OM OM1 10667 -0.550000 15.99940
10668 OM 10668 OM OM1 10668 -0.550000 15.99940
10669 OM 10669 OM OM1 10669 -0.550000 15.99940
10670 OM 10670 OM OM1 10670 -0.550000 15.99940
10671 OM 10671 OM OM1 10671 -0.550000 15.99940
10672 OM 10672 OM OM1 10672 -0.550000 15.99940
10673 OM 10673 OM OM1 10673 -0.550000 15.99940
10674 OM 10674 OM OM1 10674 -0.550000 15.99940
10675 OM 10675 OM OM1 10675 -0.550000 15.99940
10676 OM 10676 OM OM1 10676 -0.550000 15.99940
10677 OM 10677 OM OM1 10677 -0.550000 15.99940
10678 OM 10678 OM OM1 10678 -0.550000 15.99940
10679 OM 10679 OM OM1 10679 -0.550000 15.99940
10680 OM 10680 OM OM1 10680 -0.550000 15.99940
10681 OM 10681 OM OM1 10681 -0.550000 15.99940
10682 OM 10682 OM OM1 10682 -0.550000 15.99940
10683 OM 10683 OM OM1 10683 -0.550000 15.99940
10684 OM 10684 OM OM1 10684 -0.550000 15.99940
10685 OM 10685 OM OM1 10685 -0.550000 15.99940
10686 OM 10686 OM OM1 10686 -0.550000 15.99940
10687 OM 10687 OM OM1 10687 -0.550000 15.99940
10688 OM 10688 OM OM1 10688 -0.550000 15.99940
10689 OM 10689 OM OM1 10689 -0.550000 15.99940
10690 OM 10690 OM OM1 10690 -0.550000 15.99940
10691 OM 10691 OM OM1 10691 -0.550000 15.99940
10692 OM 10692 OM OM1 10692 -0.550000 15.99940
10693 OM 10693 OM OM1 10693 -0.550000 15.99940
10694 OM 10694 OM OM1 10694 -0.550000 15.99940
10695 OM 10695 OM OM1 10695 -0.550000 15.99940
10696 OM 10696 OM OM1 10696 -0.550000 15.99940
10697 OM 10697 OM OM1 10697 -0.550000 15.99940
10698 OM 10698 OM OM1 10698 -0.550000 15.99940
10699 OM 10699 OM OM1 10699 -0.550000 15.99940
10700 OM 10700 OM OM1 10700 -0.550000 15.99940
10701 OM 10701 OM OM1 10701 -0.550000 15.99940
10702 OM 10702 OM OM1 10702 -0.550000 15.99940
10703 OM 10703 OM OM1 10703 -0.550000 15.99940
10704 OM 10704 OM OM1 10704 -0.550000 15.99940
10705 OM 10705 OM OM1 10705 -0.550000 15.99940
10706 OM 10706 OM OM1 10706 -0.550000 15.99940
10707 OM 10707 OM OM1 10707 -0.550000 15.99940
10708 OM 10708 OM OM1 10708 -0.550000 15.99940
10709 OM 10709 OM OM1 10709 -0.550000 15.99940
10710 OM 10710 OM OM1 10710 -0.550000 15.99940
10711 OM 10711 OM OM1 10711 -0.550000 15.99940
10712 OM 10712 OM OM1 10712 -0.550000 15.99940
10713 OM 10713 OM OM1 10713 -0.550000 15.99940
10714 OM 10714 OM OM1 10714 -0.550000 15.99940
10715 OM 10715 OM OM1 10715 -0.550000 15.99940
10716 OM 10716 OM OM1 10716 -0.550000 15.99940
10717 OM 10717 OM OM1 10717 -0.550000 15.99940
10718 OM 10718 OM OM1 10718 -0.550000 15.99940
10719 OM 10719 OM OM1 10719 -0.550000 15.99940
10720 OM 10720 OM OM1 10720 -0.550000 15.99940
10721 OM 10721 OM OM1 10721 -0.550000 15.99940
10722 OM 10722 OM OM1 10722 -0.550000 15.99940
10723 OM 10723 OM OM1 10723 -0.550000 15.99940
10724 OM 10724 OM OM1 10724 -0.550000 15.99940
10725 OM 10725 OM OM1 10725 -0.550000 15.99940
10726 OM 10726 OM OM1 10726 -0.550000 15.99940
10727 OM 10727 OM OM1 10727 -0.550000 15.99940
10728 OM 10728 OM OM1 10728 -0.550000 15.99940
10729 OM 10729 OM OM1 10729 -0.550000 15.99940
10730 OM 10730 OM OM1 10730 -0.550000 15.99940
10731 OM 10731 OM OM1 10731 -0.550000 15.99940
10732 OM 10732 OM OM1 10732 -0.550000 15.99940
10733 OM 10733 OM OM1 10733 -0.550000 15.99940
10734 OM 10734 OM OM1 10734 -0.550000 15.99940
10735 OM 10735 OM OM1 10735 -0.550000 15.99940
10736 OM 10736 OM OM1 10736 -0.550000 15.99940
10737 OM 10737 OM OM1 10737 -0.550000 15.99940
10738 OM 10738 OM OM1 10738 -0.550000 15.99940
10739 OM 10739 OM OM1 10739 -0.550000 15.99940
10740 OM 10740 OM OM1 10740 -0.550000 15.99940
10741 OM 10741 OM OM1 10741 -0.550000 15.99940
10742 OM 10742 OM OM1 10742 -0.550000 15.99940
10743 OM 10743 OM OM1 10743 -0.550000 15.99940
10744 OM 10744 OM OM1 10744 -0.550000 15.99940
10745 OM 10745 OM OM1 10745 -0.550000 15.99940
10746 OM 10746 OM OM1 10746 -0.550000 15.99940
10747 OM 10747 OM OM1 10747 -0.550000 15.99940
10748 OM 10748 OM OM1 10748 -0.550000 15.99940
10749 OM 10749 OM OM1 10749 -0.550000 15.99940
10750 OM 10750 OM OM1 10750 -0.550000 15.99940
10751 OM 10751 OM OM1 10751 -0.550000 15.99940
10752 OM 10752 OM OM1 10752 -0.550000 15.99940
10753 OM 10753 OM OM1 10753 -0.550000 15.99940
10754 OM 10754 OM OM1 10754 -0.550000 15.99940
10755 OM 10755 OM OM1 10755 -0.550000 15.99940
10756 OM 10756 OM OM1 10756 -0.550000 15.99940
10757 OM 10757 OM OM1 10757 -0.550000 15.99940
10758 OM 10758 OM OM1 10758 -0.550000 15.99940
10759 OM 10759 OM OM1 10759 -0.550000 15.99940
10760 OM 10760 OM OM1 10760 -0.550000 15.99940
10761 OM 10761 OM OM1 10761 -0.550000 15.99940
10762 OM 10762 OM OM1 10762 -0.550000 15.99940
10763 OM 10763 OM OM1 10763 -0.550000 15.99940
10764 OM 10764 OM OM1 10764 -0.550000 15.99940
10765 OM 10765 OM OM1 10765 -0.550000 15.99940
10766 OM 10766 OM OM1 10766 -0.550000 15.99940
10767 OM 10767 OM OM1 10767 -0.550000 15.99940
10768 OM 10768 OM OM1 10768 -0.550000 15.99940
10769 OM 10769 OM OM1 10769 -0.550000 15.99940
10770 OM 10770 OM OM1 10770 -0.550000 15.99940
10771 OM 10771 OM OM1 10771 -0.550000 15.99940
10772 OM 10772 OM OM1 10772 -0.550000 15.99940
10773 OM 10773 OM OM1 10773 -0.550000 15.99940
10774 OM 10774 OM OM1 10774 -0.550000 15.99940
10775 OM 10775 OM OM1 10775 -0.550000 15.99940
10776 OM 10776 OM OM1 10776 -0.550000 15.99940
10777 OM 10777 OM OM1 10777 -0.550000 15.99940
10778 OM 10778 OM OM1 10778 -0.550000 15.99940
10779 OM 10779 OM OM1 10779 -0.550000 15.99940
10780 OM 10780 OM OM1 10780 -0.550000 15.99940
10781 OM 10781 OM OM1 10781 -0.550000 15.99940
10782 OM 10782 OM OM1 10782 -0.550000 15.99940
10783 OM 10783 OM OM1 10783 -0.550000 15.99940
10784 OM 10784 OM OM1 10784 -0.550000 15.99940
10785 OM 10785 OM OM1 10785 -0.550000 15.99940
10786 OM 10786 OM OM1 10786 -0.550000 15.99940
10787 OM 10787 OM OM1 10787 -0.550000 15.99940
10788 OM 10788 OM OM1 10788 -0.550000 15.99940
10789 OM 10789 OM OM1 10789 -0.550000 15.99940
10790 OM 10790 OM OM1 10790 -0.550000 15.99940
10791 OM 10791 OM OM1 10791 -0.550000 15.99940
10792 OM 10792 OM OM1 10792 -0.550000 15.99940
10793 OM 10793 OM OM1 10793 -0.550000 15.99940
10794 OM 10794 OM OM1 10794 -0.550000 15.99940
10795 OM 10795 OM OM1 10795 -0.550000 15.99940
10796 OM 10796 OM OM1 10796 -0.550000 15.99940
10797 OM 10797 OM OM1 10797 -0.550000 15.99940
10798 OM 10798 OM OM1 10798 -0.550000 15.99940
10799 OM 10799 OM OM1 10799 -0.550000 15.99940
10800 OM 10800 OM OM1 10800 -0.550000 15.99940
10801 OM 10801 OM OM1 10801 -0.550000 15.99940
10802 OM 10802 OM OM1 10802 -0.550000 15.99940
10803 OM 10803 OM OM1 10803 -0.550000 15.99940
10804 OM 10804 OM OM1 10804 -0.550000 15.99940
10805 OM 10805 OM OM1 10805 -0.550000 15.99940
10806 OM 10806 OM OM1 10806 -0.550000 15.99940
10807 OM 10807 OM OM1 10807 -0.550000 15.99940
10808 OM 10808 OM OM1 10808 -0.550000 15.99940
10809 OM 10809 OM OM1 10809 -0.550000 15.99940
10810 OM 10810 OM OM1 10810 -0.550000 15.99940
10811 OM 10811 OM OM1 10811 -0.550000 15.99940
10812 OM 10812 OM OM1 10812 -0.550000 15.99940
10813 OM 10813 OM OM1 10813 -0.550000 15.99940
10814 OM 10814 OM OM1 10814 -0.550000 15.99940
10815 OM 10815 OM OM1 10815 -0.550000 15.99940
10816 OM 10816 OM OM1 10816 -0.550000 15.99940
10817 OM 10817 OM OM1 10817 -0.550000 15.99940
10818 OM 10818 OM OM1 10818 -0.550000 15.99940
10819 OM 10819 OM OM1 10819 -0.550000 15.99940
10820 OM 10820 OM OM1 10820 -0.550000 15.99940
10821 OM 10821 OM OM1 10821 -0.550000 15.99940
10822 OM 10822 OM OM1 10822 -0.550000 15.99940
10823 OM 10823 OM OM1 10823 -0.550000 15.99940
10824 OM 10824 OM OM1 10824 -0.550000 15.99940
10825 OM 10825 OM OM1 10825 -0.550000 15.99940
10826 OM 10826 OM OM1 10826 -0.550000 15.99940
10827 OM 10827 OM OM1 10827 -0.550000 15.99940
10828 OM 10828 OM OM1 10828 -0.550000 15.99940
10829 OM 10829 OM OM1 10829 -0.550000 15.99940
10830 OM 10830 OM OM1 10830 -0.550000 15.99940
10831 OM 10831 OM OM1 10831 -0.550000 15.99940
10832 OM 10832 OM OM1 10832 -0.550000 15.99940
10833 OM 10833 OM OM1 10833 -0.550000 15.99940
10834 OM 10834 OM OM1 10834 -0.550000 15.99940
10835 OM 10835 OM OM1 10835 -0.550000 15.99940
10836 OM 10836 OM OM1 10836 -0.550000 15.99940
10837 OM 10837 OM OM1 10837 -0.550000 15.99940
10838 OM 10838 OM OM1 10838 -0.550000 15.99940
10839 OM 10839 OM OM1 10839 -0.550000 15.99940
10840 OM 10840 OM OM1 10840 -0.550000 15.99940
10841 OM 10841 OM OM1 10841 -0.550000 15.99940
10842 OM 10842 OM OM1 10842 -0.550000 15.99940
10843 OM 10843 OM OM1 10843 -0.550000 15.99940
10844 OM 10844 OM OM1 10844 -0.550000 15.99940
10845 OM 10845 OM OM1 10845 -0.550000 15.99940
10846 OM 10846 OM OM1 10846 -0.550000 15.99940
10847 OM 10847 OM OM1 10847 -0.550000 15.99940
10848 OM 10848 OM OM1 10848 -0.550000 15.99940
10849 OM 10849 OM OM1 10849 -0.550000 15.99940
10850 OM 10850 OM OM1 10850 -0.550000 15.99940
10851 OM 10851 OM OM1 10851 -0.550000 15.99940
10852 OM 10852 OM OM1 10852 -0.550000 15.99940
10853 OM 10853 OM OM1 10853 -0.550000 15.99940
10854 OM 10854 OM OM1 10854 -0.550000 15.99940
10855 OM 10855 OM OM1 10855 -0.550000 15.99940
10856 OM 10856 OM OM1 10856 -0.550000 15.99940
10857 OM 10857 OM OM1 10857 -0.550000 15.99940
10858 OM 10858 OM OM1 10858 -0.550000 15.99940
10859 OM 10859 OM OM1 10859 -0.550000 15.99940
10860 OM 10860 OM OM1 10860 -0.550000 15.99940
10861 OM 10861 OM OM1 10861 -0.550000 15.99940
10862 OM 10862 OM OM1 10862 -0.550000 15.99940
10863 OM 10863 OM OM1 10863 -0.550000 15.99940
10864 OM 10864 OM OM1 10864 -0.550000 15.99940
10865 OM 10865 OM OM1 10865 -0.550000 15.99940
10866 OM 10866 OM OM1 10866 -0.550000 15.99940
10867 OM 10867 OM OM1 10867 -0.550000 15.99940
10868 OM 10868 OM OM1 10868 -0.550000 15.99940
10869 OM 10869 OM OM1 10869 -0.550000 15.99940
10870 OM 10870 OM OM1 10870 -0.550000 15.99940
10871 OM 10871 OM OM1 10871 -0.550000 15.99940
10872 OM 10872 OM OM1 10872 -0.550000 15.99940
10873 OM 10873 OM OM1 10873 -0.550000 15.99940
10874 OM 10874 OM OM1 10874 -0.550000 15.99940
10875 OM 10875 OM OM1 10875 -0.550000 15.99940
10876 OM 10876 OM OM1 10876 -0.550000 15.99940
10877 OM 10877 OM OM1 10877 -0.550000 15.99940
10878 OM 10878 OM OM1 10878 -0.550000 15.99940
10879 OM 10879 OM OM1 10879 -0.550000 15.99940
10880 OM 10880 OM OM1 10880 -0.550000 15.99940
10881 OM 10881 OM OM1 10881 -0.550000 15.99940
10882 OM 10882 OM OM1 10882 -0.550000 15.99940
10883 OM 10883 OM OM1 10883 -0.550000 15.99940
10884 OM 10884 OM OM1 10884 -0.550000 15.99940
10885 OM 10885 OM OM1 10885 -0.550000 15.99940
10886 OM 10886 OM OM1 10886 -0.550000 15.99940
10887 OM 10887 OM OM1 10887 -0.550000 15.99940
10888 OM 10888 OM OM1 10888 -0.550000 15.99940
10889 OM 10889 OM OM1 10889 -0.550000 15.99940
10890 OM 10890 OM OM1 10890 -0.550000 15.99940
10891 OM 10891 OM OM1 10891 -0.550000 15.99940
10892 OM 10892 OM OM1 10892 -0.550000 15.99940
10893 OM 10893 OM OM1 10893 -0.550000 15.99940
10894 OM 10894 OM OM1 10894 -0.550000 15.99940
10895 OM 10895 OM OM1 10895 -0.550000 15.99940
10896 OM 10896 OM OM1 10896 -0.550000 15.99940
10897 OM 10897 OM OM1 10897 -0.550000 15.99940
10898 OM 10898 OM OM1 10898 -0.550000 15.99940
10899 OM 10899 OM OM1 10899 -0.550000 15.99940
10900 OM 10900 OM OM1 10900 -0.550000 15.99940
10901 OM 10901 OM OM1 10901 -0.550000 15.99940
10902 OM 10902 OM OM1 10902 -0.550000 15.99940
10903 OM 10903 OM OM1 10903 -0.550000 15.99940
10904 OM 10904 OM OM1 10904 -0.550000 15.99940
10905 OM 10905 OM OM1 10905 -0.550000 15.99940
10906 OM 10906 OM OM1 10906 -0.550000 15.99940
10907 OM 10907 OM OM1 10907 -0.550000 15.99940
10908 OM 10908 OM OM1 10908 -0.550000 15.99940
10909 OM 10909 OM OM1 10909 -0.550000 15.99940
10910 OM 10910 OM OM1 10910 -0.550000 15.99940
10911 OM 10911 OM OM1 10911 -0.550000 15.99940
10912 OM 10912 OM OM1 10912 -0.550000 15.99940
10913 OM 10913 OM OM1 10913 -0.550000 15.99940
10914 OM 10914 OM OM1 10914 -0.550000 15.99940
10915 OM 10915 OM OM1 10915 -0.550000 15.99940
10916 OM 10916 OM OM1 10916 -0.550000 15.99940
10917 OM 10917 OM OM1 10917 -0.550000 15.99940
10918 OM 10918 OM OM1 10918 -0.550000 15.99940
10919 OM 10919 OM OM1 10919 -0.550000 15.99940
10920 OM 10920 OM OM1 10920 -0.550000 15.99940
10921 OM 10921 OM OM1 10921 -0.550000 15.99940
10922 OM 10922 OM OM1 10922 -0.550000 15.99940
10923 OM 10923 OM OM1 10923 -0.550000 15.99940
10924 OM 10924 OM OM1 10924 -0.550000 15.99940
10925 OM 10925 OM OM1 10925 -0.550000 15.99940
10926 OM 10926 OM OM1 10926 -0.550000 15.99940
10927 OM 10927 OM OM1 10927 -0.550000 15.99940
10928 OM 10928 OM OM1 10928 -0.550000 15.99940
10929 OM 10929 OM OM1 10929 -0.550000 15.99940
10930 OM 10930 OM OM1 10930 -0.550000 15.99940
10931 OM 10931 OM OM1 10931 -0.550000 15.99940
10932 OM 10932 OM OM1 10932 -0.550000 15.99940
10933 OM 10933 OM OM1 10933 -0.550000 15.99940
10934 OM 10934 OM OM1 10934 -0.550000 15.99940
10935 OM 10935 OM OM1 10935 -0.550000 15.99940
10936 OM 10936 OM OM1 10936 -0.550000 15.99940
10937 OM 10937 OM OM1 10937 -0.550000 15.99940
10938 OM 10938 OM OM1 10938 -0.550000 15.99940
10939 OM 10939 OM OM1 10939 -0.550000 15.99940
10940 OM 10940 OM OM1 10940 -0.550000 15.99940
10941 OM 10941 OM OM1 10941 -0.550000 15.99940
10942 OM 10942 OM OM1 10942 -0.550000 15.99940
10943 OM 10943 OM OM1 10943 -0.550000 15.99940
10944 OM 10944 OM OM1 10944 -0.550000 15.99940
10945 OM 10945 OM OM1 10945 -0.550000 15.99940
10946 OM 10946 OM OM1 10946 -0.550000 15.99940
10947 OM 10947 OM OM1 10947 -0.550000 15.99940
10948 OM 10948 OM OM1 10948 -0.550000 15.99940
10949 OM 10949 OM OM1 10949 -0.550000 15.99940
10950 OM 10950 OM OM1 10950 -0.550000 15.99940
10951 OM 10951 OM OM1 10951 -0.550000 15.99940
10952 OM 10952 OM OM1 10952 -0.550000 15.99940
10953 OM 10953 OM OM1 10953 -0.550000 15.99940
10954 OM 10954 OM OM1 10954 -0.550000 15.99940
10955 OM 10955 OM OM1 10955 -0.550000 15.99940
10956 OM 10956 OM OM1 10956 -0.550000 15.99940
10957 OM 10957 OM OM1 10957 -0.550000 15.99940
10958 OM 10958 OM OM1 10958 -0.550000 15.99940
10959 OM 10959 OM OM1 10959 -0.550000 15.99940
10960 OM 10960 OM OM1 10960 -0.550000 15.99940
10961 OM 10961 OM OM1 10961 -0.550000 15.99940
10962 OM 10962 OM OM1 10962 -0.550000 15.99940
10963 OM 10963 OM OM1 10963 -0.550000 15.99940
10964 OM 10964 OM OM1 10964 -0.550000 15.99940
10965 OM 10965 OM OM1 10965 -0.550000 15.99940
10966 OM 10966 OM OM1 10966 -0.550000 15.99940
10967 OM 10967 OM OM1 10967 -0.550000 15.99940
10968 OM 10968 OM OM1 10968 -0.550000 15.99940
10969 OM 10969 OM OM1 10969 -0.550000 15.99940
10970 OM 10970 OM OM1 10970 -0.550000 15.99940
10971 OM 10971 OM OM1 10971 -0.550000 15.99940
10972 OM 10972 OM OM1 10972 -0.550000 15.99940
10973 OM 10973 OM OM1 10973 -0.550000 15.99940
10974 OM 10974 OM OM1 10974 -0.550000 15.99940
10975 OM 10975 OM OM1 10975 -0.550000 15.99940
10976 OM 10976 OM OM1 10976 -0.550000 15.99940
10977 OM 10977 OM OM1 10977 -0.550000 15.99940
10978 OM 10978 OM OM1 10978 -0.550000 15.99940
10979 OM 10979 OM OM1 10979 -0.550000 15.99940
10980 OM 10980 OM OM1 10980 -0.550000 15.99940
10981 OM 10981 OM OM1 10981 -0.550000 15.99940
10982 OM 10982 OM OM1 10982 -0.550000 15.99940
10983 OM 10983 OM OM1 10983 -0.550000 15.99940
10984 OM 10984 OM OM1 10984 -0.550000 15.99940
10985 OM 10985 OM OM1 10985 -0.550000 15.99940
10986 OM 10986 OM OM1 10986 -0.550000 15.99940
10987 OM 10987 OM OM1 10987 -0.550000 15.99940
10988 OM 10988 OM OM1 10988 -0.550000 15.99940
10989 OM 10989 OM OM1 10989 -0.550000 15.99940
10990 OM 10990 OM OM1 10990 -0.550000 15.99940
10991 OM 10991 OM OM1 10991 -0.550000 15.99940
10992 OM 10992 OM OM1 10992 -0.550000 15.99940
10993 OM 10993 OM OM1 10993 -0.550000 15.99940
10994 OM 10994 OM OM1 10994 -0.550000 15.99940
10995 OM 10995 OM OM1 10995 -0.550000 15.99940
10996 OM 10996 OM OM1 10996 -0.550000 15.99940
10997 OM 10997 OM OM1 10997 -0.550000 15.99940
10998 OM 10998 OM OM1 10998 -0.550000 15.99940
10999 OM 10999 OM OM1 10999 -0.550000 15.99940
11000 OM 11000 OM OM1 11000 -0.550000 15.99940
11001 OM 11001 OM OM1 11001 -0.550000 15.99940
11002 OM 11002 OM OM1 11002 -0.550000 15.99940
11003 OM 11003 OM OM1 11003 -0.550000 15.99940
11004 OM 11004 OM OM1 11004 -0.550000 15.99940
11005 OM 11005 OM OM1 11005 -0.550000 15.99940
11006 OM 11006 OM OM1 11006 -0.550000 15.99940
11007 OM 11007 OM OM1 11007 -0.550000 15.99940
11008 OM 11008 OM OM1 11008 -0.550000 15.99940
11009 OM 11009 OM OM1 11009 -0.550000 15.99940
11010 OM 11010 OM OM1 11010 -0.550000 15.99940
11011 OM 11011 OM OM1 11011 -0.550000 15.99940
11012 OM 11012 OM OM1 11012 -0.550000 15.99940
11013 OM 11013 OM OM1 11013 -0.550000 15.99940
11014 OM 11014 OM OM1 11014 -0.550000 15.99940
11015 OM 11015 OM OM1 11015 -0.550000 15.99940
11016 OM 11016 OM OM1 11016 -0.550000 15.99940
11017 OM 11017 OM OM1 11017 -0.550000 15.99940
11018 OM 11018 OM OM1 11018 -0.550000 15.99940
11019 OM 11019 OM OM1 11019 -0.550000 15.99940
11020 OM 11020 OM OM1 11020 -0.550000 15.99940
11021 OM 11021 OM OM1 11021 -0.550000 15.99940
11022 OM 11022 OM OM1 11022 -0.550000 15.99940
11023 OM 11023 OM OM1 11023 -0.550000 15.99940
11024 OM 11024 OM OM1 11024 -0.550000 15.99940
11025 OM 11025 OM OM1 11025 -0.550000 15.99940
11026 OM 11026 OM OM1 11026 -0.550000 15.99940
11027 OM 11027 OM OM1 11027 -0.550000 15.99940
11028 OM 11028 OM OM1 11028 -0.550000 15.99940
11029 OM 11029 OM OM1 11029 -0.550000 15.99940
11030 OM 11030 OM OM1 11030 -0.550000 15.99940
11031 OM 11031 OM OM1 11031 -0.550000 15.99940
11032 OM 11032 OM OM1 11032 -0.550000 15.99940
11033 OM 11033 OM OM1 11033 -0.550000 15.99940
11034 OM 11034 OM OM1 11034 -0.550000 15.99940
11035 OM 11035 OM OM1 11035 -0.550000 15.99940
11036 OM 11036 OM OM1 11036 -0.550000 15.99940
11037 OM 11037 OM OM1 11037 -0.550000 15.99940
11038 OM 11038 OM OM1 11038 -0.550000 15.99940
11039 OM 11039 OM OM1 11039 -0.550000 15.99940
11040 OM 11040 OM OM1 11040 -0.550000 15.99940
11041 OM 11041 OM OM1 11041 -0.550000 15.99940
11042 OM 11042 OM OM1 11042 -0.550000 15.99940
11043 OM 11043 OM OM1 11043 -0.550000 15.99940
11044 OM 11044 OM OM1 11044 -0.550000 15.99940
11045 OM 11045 OM OM1 11045 -0.550000 15.99940
11046 OM 11046 OM OM1 11046 -0.550000 15.99940
11047 OM 11047 OM OM1 11047 -0.550000 15.99940
11048 OM 11048 OM OM1 11048 -0.550000 15.99940
11049 OM 11049 OM OM1 11049 -0.550000 15.99940
11050 OM 11050 OM OM1 11050 -0.550000 15.99940
11051 OM 11051 OM OM1 11051 -0.550000 15.99940
11052 OM 11052 OM OM1 11052 -0.550000 15.99940
11053 OM 11053 OM OM1 11053 -0.550000 15.99940
11054 OM 11054 OM OM1 11054 -0.550000 15.99940
11055 OM 11055 OM OM1 11055 -0.550000 15.99940
11056 OM 11056 OM OM1 11056 -0.550000 15.99940
11057 OM 11057 OM OM1 11057 -0.550000 15.99940
11058 OM 11058 OM OM1 11058 -0.550000 15.99940
11059 OM 11059 OM OM1 11059 -0.550000 15.99940
11060 OM 11060 OM OM1 11060 -0.550000 15.99940
11061 OM 11061 OM OM1 11061 -0.550000 15.99940
11062 OM 11062 OM OM1 11062 -0.550000 15.99940
11063 OM 11063 OM OM1 11063 -0.550000 15.99940
11064 OM 11064 OM OM1 11064 -0.550000 15.99940
11065 OM 11065 OM OM1 11065 -0.550000 15.99940
11066 OM 11066 OM OM1 11066 -0.550000 15.99940
11067 OM 11067 OM OM1 11067 -0.550000 15.99940
11068 OM 11068 OM OM1 11068 -0.550000 15.99940
11069 OM 11069 OM OM1 11069 -0.550000 15.99940
11070 OM 11070 OM OM1 11070 -0.550000 15.99940
11071 OM 11071 OM OM1 11071 -0.550000 15.99940
11072 OM 11072 OM OM1 11072 -0.550000 15.99940
11073 OM 11073 OM OM1 11073 -0.550000 15.99940
11074 OM 11074 OM OM1 11074 -0.550000 15.99940
11075 OM 11075 OM OM1 11075 -0.550000 15.99940
11076 OM 11076 OM OM1 11076 -0.550000 15.99940
11077 OM 11077 OM OM1 11077 -0.550000 15.99940
11078 OM 11078 OM OM1 11078 -0.550000 15.99940
11079 OM 11079 OM OM1 11079 -0.550000 15.99940
11080 OM 11080 OM OM1 11080 -0.550000 15.99940
11081 OM 11081 OM OM1 11081 -0.550000 15.99940
11082 OM 11082 OM OM1 11082 -0.550000 15.99940
11083 OM 11083 OM OM1 11083 -0.550000 15.99940
11084 OM 11084 OM OM1 11084 -0.550000 15.99940
11085 OM 11085 OM OM1 11085 -0.550000 15.99940
11086 OM 11086 OM OM1 11086 -0.550000 15.99940
11087 OM 11087 OM OM1 11087 -0.550000 15.99940
11088 OM 11088 OM OM1 11088 -0.550000 15.99940
11089 OM 11089 OM OM1 11089 -0.550000 15.99940
11090 OM 11090 OM OM1 11090 -0.550000 15.99940
11091 OM 11091 OM OM1 11091 -0.550000 15.99940
11092 OM 11092 OM OM1 11092 -0.550000 15.99940
11093 OM 11093 OM OM1 11093 -0.550000 15.99940
11094 OM 11094 OM OM1 11094 -0.550000 15.99940
11095 OM 11095 OM OM1 11095 -0.550000 15.99940
11096 OM 11096 OM OM1 11096 -0.550000 15.99940
11097 OM 11097 OM OM1 11097 -0.550000 15.99940
11098 OM 11098 OM OM1 11098 -0.550000 15.99940
11099 OM 11099 OM OM1 11099 -0.550000 15.99940
11100 OM 11100 OM OM1 11100 -0.550000 15.99940
11101 OM 11101 OM OM1 11101 -0.550000 15.99940
11102 OM 11102 OM OM1 11102 -0.550000 15.99940
11103 OM 11103 OM OM1 11103 -0.550000 15.99940
11104 OM 11104 OM OM1 11104 -0.550000 15.99940
11105 OM 11105 OM OM1 11105 -0.550000 15.99940
11106 OM 11106 OM OM1 11106 -0.550000 15.99940
11107 OM 11107 OM OM1 11107 -0.550000 15.99940
11108 OM 11108 OM OM1 11108 -0.550000 15.99940
11109 OM 11109 OM OM1 11109 -0.550000 15.99940
11110 OM 11110 OM OM1 11110 -0.550000 15.99940
11111 OM 11111 OM OM1 11111 -0.550000 15.99940
11112 OM 11112 OM OM1 11112 -0.550000 15.99940
11113 OM 11113 OM OM1 11113 -0.550000 15.99940
11114 OM 11114 OM OM1 11114 -0.550000 15.99940
11115 OM 11115 OM OM1 11115 -0.550000 15.99940
11116 OM 11116 OM OM1 11116 -0.550000 15.99940
11117 OM 11117 OM OM1 11117 -0.550000 15.99940
11118 OM 11118 OM OM1 11118 -0.550000 15.99940
11119 OM 11119 OM OM1 11119 -0.550000 15.99940
11120 OM 11120 OM OM1 11120 -0.550000 15.99940
11121 OM 11121 OM OM1 11121 -0.550000 15.99940
11122 OM 11122 OM OM1 11122 -0.550000 15.99940
11123 OM 11123 OM OM1 11123 -0.550000 15.99940
11124 OM 11124 OM OM1 11124 -0.550000 15.99940
11125 OM 11125 OM OM1 11125 -0.550000 15.99940
11126 OM 11126 OM OM1 11126 -0.550000 15.99940
11127 OM 11127 OM OM1 11127 -0.550000 15.99940
11128 OM 11128 OM OM1 11128 -0.550000 15.99940
11129 OM 11129 OM OM1 11129 -0.550000 15.99940
11130 OM 11130 OM OM1 11130 -0.550000 15.99940
11131 OM 11131 OM OM1 11131 -0.550000 15.99940
11132 OM 11132 OM OM1 11132 -0.550000 15.99940
11133 OM 11133 OM OM1 11133 -0.550000 15.99940
11134 OM 11134 OM OM1 11134 -0.550000 15.99940
11135 OM 11135 OM OM1 11135 -0.550000 15.99940
11136 OM 11136 OM OM1 11136 -0.550000 15.99940
11137 OM 11137 OM OM1 11137 -0.550000 15.99940
11138 OM 11138 OM OM1 11138 -0.550000 15.99940
11139 OM 11139 OM OM1 11139 -0.550000 15.99940
11140 OM 11140 OM OM1 11140 -0.550000 15.99940
11141 OM 11141 OM OM1 11141 -0.550000 15.99940
11142 OM 11142 OM OM1 11142 -0.550000 15.99940
11143 OM 11143 OM OM1 11143 -0.550000 15.99940
11144 OM 11144 OM OM1 11144 -0.550000 15.99940
11145 OM 11145 OM OM1 11145 -0.550000 15.99940
11146 OM 11146 OM OM1 11146 -0.550000 15.99940
11147 OM 11147 OM OM1 11147 -0.550000 15.99940
11148 OM 11148 OM OM1 11148 -0.550000 15.99940
11149 OM 11149 OM OM1 11149 -0.550000 15.99940
11150 OM 11150 OM OM1 11150 -0.550000 15.99940
11151 OM 11151 OM OM1 11151 -0.550000 15.99940
11152 OM 11152 OM OM1 11152 -0.550000 15.99940
11153 OM 11153 OM OM1 11153 -0.550000 15.99940
11154 OM 11154 OM OM1 11154 -0.550000 15.99940
11155 OM 11155 OM OM1 11155 -0.550000 15.99940
11156 OM 11156 OM OM1 11156 -0.550000 15.99940
11157 OM 11157 OM OM1 11157 -0.550000 15.99940
11158 OM 11158 OM OM1 11158 -0.550000 15.99940
11159 OM 11159 OM OM1 11159 -0.550000 15.99940
11160 OM 11160 OM OM1 11160 -0.550000 15.99940
11161 OM 11161 OM OM1 11161 -0.550000 15.99940
11162 OM 11162 OM OM1 11162 -0.550000 15.99940
11163 OM 11163 OM OM1 11163 -0.550000 15.99940
11164 OM 11164 OM OM1 11164 -0.550000 15.99940
11165 OM 11165 OM OM1 11165 -0.550000 15.99940
11166 OM 11166 OM OM1 11166 -0.550000 15.99940
11167 OM 11167 OM OM1 11167 -0.550000 15.99940
11168 OM 11168 OM OM1 11168 -0.550000 15.99940
11169 OM 11169 OM OM1 11169 -0.550000 15.99940
11170 OM 11170 OM OM1 11170 -0.550000 15.99940
11171 OM 11171 OM OM1 11171 -0.550000 15.99940
11172 OM 11172 OM OM1 11172 -0.550000 15.99940
11173 OM 11173 OM OM1 11173 -0.550000 15.99940
11174 OM 11174 OM OM1 11174 -0.550000 15.99940
11175 OM 11175 OM OM1 11175 -0.550000 15.99940
11176 OM 11176 OM OM1 11176 -0.550000 15.99940
11177 OM 11177 OM OM1 11177 -0.550000 15.99940
11178 OM 11178 OM OM1 11178 -0.550000 15.99940
11179 OM 11179 OM OM1 11179 -0.550000 15.99940
11180 OM 11180 OM OM1 11180 -0.550000 15.99940
11181 OM 11181 OM OM1 11181 -0.550000 15.99940
11182 OM 11182 OM OM1 11182 -0.550000 15.99940
11183 OM 11183 OM OM1 11183 -0.550000 15.99940
11184 OM 11184 OM OM1 11184 -0.550000 15.99940
11185 OM 11185 OM OM1 11185 -0.550000 15.99940
11186 OM 11186 OM OM1 11186 -0.550000 15.99940
11187 OM 11187 OM OM1 11187 -0.550000 15.99940
11188 OM 11188 OM OM1 11188 -0.550000 15.99940
11189 OM 11189 OM OM1 11189 -0.550000 15.99940
11190 OM 11190 OM OM1 11190 -0.550000 15.99940
11191 OM 11191 OM OM1 11191 -0.550000 15.99940
11192 OM 11192 OM OM1 11192 -0.550000 15.99940
11193 OM 11193 OM OM1 11193 -0.550000 15.99940
11194 OM 11194 OM OM1 11194 -0.550000 15.99940
11195 OM 11195 OM OM1 11195 -0.550000 15.99940
11196 OM 11196 OM OM1 11196 -0.550000 15.99940
11197 OM 11197 OM OM1 11197 -0.550000 15.99940
11198 OM 11198 OM OM1 11198 -0.550000 15.99940
11199 OM 11199 OM OM1 11199 -0.550000 15.99940
11200 OM 11200 OM OM1 11200 -0.550000 15.99940
11201 OM 11201 OM OM1 11201 -0.550000 15.99940
11202 OM 11202 OM OM1 11202 -0.550000 15.99940
11203 OM 11203 OM OM1 11203 -0.550000 15.99940
11204 OM 11204 OM OM1 11204 -0.550000 15.99940
11205 OM 11205 OM OM1 11205 -0.550000 15.99940
11206 OM 11206 OM OM1 11206 -0.550000 15.99940
11207 OM 11207 OM OM1 11207 -0.550000 15.99940
11208 OM 11208 OM OM1 11208 -0.550000 15.99940
11209 OM 11209 OM OM1 11209 -0.550000 15.99940
11210 OM 11210 OM OM1 11210 -0.550000 15.99940
11211 OM 11211 OM OM1 11211 -0.550000 15.99940
11212 OM 11212 OM OM1 11212 -0.550000 15.99940
11213 OM 11213 OM OM1 11213 -0.550000 15.99940
11214 OM 11214 OM OM1 11214 -0.550000 15.99940
11215 OM 11215 OM OM1 11215 -0.550000 15.99940
11216 OM 11216 OM OM1 11216 -0.550000 15.99940
11217 OM 11217 OM OM1 11217 -0.550000 15.99940
11218 OM 11218 OM OM1 11218 -0.550000 15.99940
11219 OM 11219 OM OM1 11219 -0.550000 15.99940
11220 OM 11220 OM OM1 11220 -0.550000 15.99940
11221 OM 11221 OM OM1 11221 -0.550000 15.99940
11222 OM 11222 OM OM1 11222 -0.550000 15.99940
11223 OM 11223 OM OM1 11223 -0.550000 15.99940
11224 OM 11224 OM OM1 11224 -0.550000 15.99940
11225 OM 11225 OM OM1 11225 -0.550000 15.99940
11226 OM 11226 OM OM1 11226 -0.550000 15.99940
11227 OM 11227 OM OM1 11227 -0.550000 15.99940
11228 OM 11228 OM OM1 11228 -0.550000 15.99940
11229 OM 11229 OM OM1 11229 -0.550000 15.99940
11230 OM 11230 OM OM1 11230 -0.550000 15.99940
11231 OM 11231 OM OM1 11231 -0.550000 15.99940
11232 OM 11232 OM OM1 11232 -0.550000 15.99940
11233 OM 11233 OM OM1 11233 -0.550000 15.99940
11234 OM 11234 OM OM1 11234 -0.550000 15.99940
11235 OM 11235 OM OM1 11235 -0.550000 15.99940
11236 OM 11236 OM OM1 11236 -0.550000 15.99940
11237 OM 11237 OM OM1 11237 -0.550000 15.99940
11238 OM 11238 OM OM1 11238 -0.550000 15.99940
11239 OM 11239 OM OM1 11239 -0.550000 15.99940
11240 OM 11240 OM OM1 11240 -0.550000 15.99940
11241 OM 11241 OM OM1 11241 -0.550000 15.99940
11242 OM 11242 OM OM1 11242 -0.550000 15.99940
11243 OM 11243 OM OM1 11243 -0.550000 15.99940
11244 OM 11244 OM OM1 11244 -0.550000 15.99940
11245 OM 11245 OM OM1 11245 -0.550000 15.99940
11246 OM 11246 OM OM1 11246 -0.550000 15.99940
11247 OM 11247 OM OM1 11247 -0.550000 15.99940
11248 OM 11248 OM OM1 11248 -0.550000 15.99940
11249 OM 11249 OM OM1 11249 -0.550000 15.99940
11250 OM 11250 OM OM1 11250 -0.550000 15.99940
11251 OM 11251 OM OM1 11251 -0.550000 15.99940
11252 OM 11252 OM OM1 11252 -0.550000 15.99940
11253 OM 11253 OM OM1 11253 -0.550000 15.99940
11254 OM 11254 OM OM1 11254 -0.550000 15.99940
11255 OM 11255 OM OM1 11255 -0.550000 15.99940
11256 OM 11256 OM OM1 11256 -0.550000 15.99940
11257 OM 11257 OM OM1 11257 -0.550000 15.99940
11258 OM 11258 OM OM1 11258 -0.550000 15.99940
11259 OM 11259 OM OM1 11259 -0.550000 15.99940
11260 OM 11260 OM OM1 11260 -0.550000 15.99940
11261 OM 11261 OM OM1 11261 -0.550000 15.99940
11262 OM 11262 OM OM1 11262 -0.550000 15.99940
11263 OM 11263 OM OM1 11263 -0.550000 15.99940
11264 OM 11264 OM OM1 11264 -0.550000 15.99940
11265 OM 11265 OM OM1 11265 -0.550000 15.99940
11266 OM 11266 OM OM1 11266 -0.550000 15.99940
11267 OM 11267 OM OM1 11267 -0.550000 15.99940
11268 OM 11268 OM OM1 11268 -0.550000 15.99940
11269 OM 11269 OM OM1 11269 -0.550000 15.99940
11270 OM 11270 OM OM1 11270 -0.550000 15.99940
11271 OM 11271 OM OM1 11271 -0.550000 15.99940
11272 OM 11272 OM OM1 11272 -0.550000 15.99940
11273 OM 11273 OM OM1 11273 -0.550000 15.99940
11274 OM 11274 OM OM1 11274 -0.550000 15.99940
11275 OM 11275 OM OM1 11275 -0.550000 15.99940
11276 OM 11276 OM OM1 11276 -0.550000 15.99940
11277 OM 11277 OM OM1 11277 -0.550000 15.99940
11278 OM 11278 OM OM1 11278 -0.550000 15.99940
11279 OM 11279 OM OM1 11279 -0.550000 15.99940
11280 OM 11280 OM OM1 11280 -0.550000 15.99940
11281 OM 11281 OM OM1 11281 -0.550000 15.99940
11282 OM 11282 OM OM1 11282 -0.550000 15.99940
11283 OM 11283 OM OM1 11283 -0.550000 15.99940
11284 OM 11284 OM OM1 11284 -0.550000 15.99940
11285 OM 11285 OM OM1 11285 -0.550000 15.99940
11286 OM 11286 OM OM1 11286 -0.550000 15.99940
11287 OM 11287 OM OM1 11287 -0.550000 15.99940
11288 OM 11288 OM OM1 11288 -0.550000 15.99940
11289 OM 11289 OM OM1 11289 -0.550000 15.99940
11290 OM 11290 OM OM1 11290 -0.550000 15.99940
11291 OM 11291 OM OM1 11291 -0.550000 15.99940
11292 OM 11292 OM OM1 11292 -0.550000 15.99940
11293 OM 11293 OM OM1 11293 -0.550000 15.99940
11294 OM 11294 OM OM1 11294 -0.550000 15.99940
11295 OM 11295 OM OM1 11295 -0.550000 15.99940
11296 OM 11296 OM OM1 11296 -0.550000 15.99940
11297 OM 11297 OM OM1 11297 -0.550000 15.99940
11298 OM 11298 OM OM1 11298 -0.550000 15.99940
11299 OM 11299 OM OM1 11299 -0.550000 15.99940
11300 OM 11300 OM OM1 11300 -0.550000 15.99940
11301 OM 11301 OM OM1 11301 -0.550000 15.99940
11302 OM 11302 OM OM1 11302 -0.550000 15.99940
11303 OM 11303 OM OM1 11303 -0.550000 15.99940
11304 OM 11304 OM OM1 11304 -0.550000 15.99940
11305 OM 11305 OM OM1 11305 -0.550000 15.99940
11306 OM 11306 OM OM1 11306 -0.550000 15.99940
11307 OM 11307 OM OM1 11307 -0.550000 15.99940
11308 OM 11308 OM OM1 11308 -0.550000 15.99940
11309 OM 11309 OM OM1 11309 -0.550000 15.99940
11310 OM 11310 OM OM1 11310 -0.550000 15.99940
11311 OM 11311 OM OM1 11311 -0.550000 15.99940
11312 OM 11312 OM OM1 11312 -0.550000 15.99940
11313 OM 11313 OM OM1 11313 -0.550000 15.99940
11314 OM 11314 OM OM1 11314 -0.550000 15.99940
11315 OM 11315 OM OM1 11315 -0.550000 15.99940
11316 OM 11316 OM OM1 11316 -0.550000 15.99940
11317 OM 11317 OM OM1 11317 -0.550000 15.99940
11318 OM 11318 OM OM1 11318 -0.550000 15.99940
11319 OM 11319 OM OM1 11319 -0.550000 15.99940
11320 OM 11320 OM OM1 11320 -0.550000 15.99940
11321 OM 11321 OM OM1 11321 -0.550000 15.99940
11322 OM 11322 OM OM1 11322 -0.550000 15.99940
11323 OM 11323 OM OM1 11323 -0.550000 15.99940
11324 OM 11324 OM OM1 11324 -0.550000 15.99940
11325 OM 11325 OM OM1 11325 -0.550000 15.99940
11326 OM 11326 OM OM1 11326 -0.550000 15.99940
11327 OM 11327 OM OM1 11327 -0.550000 15.99940
11328 OM 11328 OM OM1 11328 -0.550000 15.99940
11329 OM 11329 OM OM1 11329 -0.550000 15.99940
11330 OM 11330 OM OM1 11330 -0.550000 15.99940
11331 OM 11331 OM OM1 11331 -0.550000 15.99940
11332 OM 11332 OM OM1 11332 -0.550000 15.99940
11333 OM 11333 OM OM1 11333 -0.550000 15.99940
11334 OM 11334 OM OM1 11334 -0.550000 15.99940
11335 OM 11335 OM OM1 11335 -0.550000 15.99940
11336 OM 11336 OM OM1 11336 -0.550000 15.99940
11337 OM 11337 OM OM1 11337 -0.550000 15.99940
11338 OM 11338 OM OM1 11338 -0.550000 15.99940
11339 OM 11339 OM OM1 11339 -0.550000 15.99940
11340 OM 11340 OM OM1 11340 -0.550000 15.99940
11341 SI 11341 SI SI1 11341 1.100000 28.08600
11342 SI 11342 SI SI1 11342 1.100000 28.08600
11343 SI 11343 SI SI1 11343 1.100000 28.08600
11344 SI 11344 SI SI1 11344 1.100000 28.08600
11345 SI 11345 SI SI1 11345 1.100000 28.08600
11346 SI 11346 SI SI1 11346 1.100000 28.08600
11347 SI 11347 SI SI1 11347 1.100000 28.08600
11348 SI 11348 SI SI1 11348 1.100000 28.08600
11349 SI 11349 SI SI1 11349 1.100000 28.08600
11350 SI 11350 SI SI1 11350 1.100000 28.08600
11351 SI 11351 SI SI1 11351 1.100000 28.08600
11352 SI 11352 SI SI1 11352 1.100000 28.08600
11353 SI 11353 SI SI1 11353 1.100000 28.08600
11354 SI 11354 SI SI1 11354 1.100000 28.08600
11355 SI 11355 SI SI1 11355 1.100000 28.08600
11356 SI 11356 SI SI1 11356 1.100000 28.08600
11357 SI 11357 SI SI1 11357 1.100000 28.08600
11358 SI 11358 SI SI1 11358 1.100000 28.08600
11359 SI 11359 SI SI1 11359 1.100000 28.08600
11360 SI 11360 SI SI1 11360 1.100000 28.08600
11361 SI 11361 SI SI1 11361 1.100000 28.08600
11362 SI 11362 SI SI1 11362 1.100000 28.08600
11363 SI 11363 SI SI1 11363 1.100000 28.08600
11364 SI 11364 SI SI1 11364 1.100000 28.08600
11365 SI 11365 SI SI1 11365 1.100000 28.08600
11366 SI 11366 SI SI1 11366 1.100000 28.08600
11367 SI 11367 SI SI1 11367 1.100000 28.08600
11368 SI 11368 SI SI1 11368 1.100000 28.08600
11369 SI 11369 SI SI1 11369 1.100000 28.08600
11370 SI 11370 SI SI1 11370 1.100000 28.08600
11371 SI 11371 SI SI1 11371 1.100000 28.08600
11372 SI 11372 SI SI1 11372 1.100000 28.08600
11373 SI 11373 SI SI1 11373 1.100000 28.08600
11374 SI 11374 SI SI1 11374 1.100000 28.08600
11375 SI 11375 SI SI1 11375 1.100000 28.08600
11376 SI 11376 SI SI1 11376 1.100000 28.08600
11377 SI 11377 SI SI1 11377 1.100000 28.08600
11378 SI 11378 SI SI1 11378 1.100000 28.08600
11379 SI 11379 SI SI1 11379 1.100000 28.08600
11380 SI 11380 SI SI1 11380 1.100000 28.08600
11381 SI 11381 SI SI1 11381 1.100000 28.08600
11382 SI 11382 SI SI1 11382 1.100000 28.08600
11383 SI 11383 SI SI1 11383 1.100000 28.08600
11384 SI 11384 SI SI1 11384 1.100000 28.08600
11385 SI 11385 SI SI1 11385 1.100000 28.08600
11386 SI 11386 SI SI1 11386 1.100000 28.08600
11387 SI 11387 SI SI1 11387 1.100000 28.08600
11388 SI 11388 SI SI1 11388 1.100000 28.08600
11389 SI 11389 SI SI1 11389 1.100000 28.08600
11390 SI 11390 SI SI1 11390 1.100000 28.08600
11391 SI 11391 SI SI1 11391 1.100000 28.08600
11392 SI 11392 SI SI1 11392 1.100000 28.08600
11393 SI 11393 SI SI1 11393 1.100000 28.08600
11394 SI 11394 SI SI1 11394 1.100000 28.08600
11395 SI 11395 SI SI1 11395 1.100000 28.08600
11396 SI 11396 SI SI1 11396 1.100000 28.08600
11397 SI 11397 SI SI1 11397 1.100000 28.08600
11398 SI 11398 SI SI1 11398 1.100000 28.08600
11399 SI 11399 SI SI1 11399 1.100000 28.08600
11400 SI 11400 SI SI1 11400 1.100000 28.08600
11401 SI 11401 SI SI1 11401 1.100000 28.08600
11402 SI 11402 SI SI1 11402 1.100000 28.08600
11403 SI 11403 SI SI1 11403 1.100000 28.08600
11404 SI 11404 SI SI1 11404 1.100000 28.08600
11405 SI 11405 SI SI1 11405 1.100000 28.08600
11406 SI 11406 SI SI1 11406 1.100000 28.08600
11407 SI 11407 SI SI1 11407 1.100000 28.08600
11408 SI 11408 SI SI1 11408 1.100000 28.08600
11409 SI 11409 SI SI1 11409 1.100000 28.08600
11410 SI 11410 SI SI1 11410 1.100000 28.08600
11411 SI 11411 SI SI1 11411 1.100000 28.08600
11412 SI 11412 SI SI1 11412 1.100000 28.08600
11413 SI 11413 SI SI1 11413 1.100000 28.08600
11414 SI 11414 SI SI1 11414 1.100000 28.08600
11415 SI 11415 SI SI1 11415 1.100000 28.08600
11416 SI 11416 SI SI1 11416 1.100000 28.08600
11417 SI 11417 SI SI1 11417 1.100000 28.08600
11418 SI 11418 SI SI1 11418 1.100000 28.08600
11419 SI 11419 SI SI1 11419 1.100000 28.08600
11420 SI 11420 SI SI1 11420 1.100000 28.08600
11421 SI 11421 SI SI1 11421 1.100000 28.08600
11422 SI 11422 SI SI1 11422 1.100000 28.08600
11423 SI 11423 SI SI1 11423 1.100000 28.08600
11424 SI 11424 SI SI1 11424 1.100000 28.08600
11425 SI 11425 SI SI1 11425 1.100000 28.08600
11426 SI 11426 SI SI1 11426 1.100000 28.08600
11427 SI 11427 SI SI1 11427 1.100000 28.08600
11428 SI 11428 SI SI1 11428 1.100000 28.08600
11429 SI 11429 SI SI1 11429 1.100000 28.08600
11430 SI 11430 SI SI1 11430 1.100000 28.08600
11431 SI 11431 SI SI1 11431 1.100000 28.08600
11432 SI 11432 SI SI1 11432 1.100000 28.08600
11433 SI 11433 SI SI1 11433 1.100000 28.08600
11434 SI 11434 SI SI1 11434 1.100000 28.08600
11435 SI 11435 SI SI1 11435 1.100000 28.08600
11436 SI 11436 SI SI1 11436 1.100000 28.08600
11437 SI 11437 SI SI1 11437 1.100000 28.08600
11438 SI 11438 SI SI1 11438 1.100000 28.08600
11439 SI 11439 SI SI1 11439 1.100000 28.08600
11440 SI 11440 SI SI1 11440 1.100000 28.08600
11441 SI 11441 SI SI1 11441 1.100000 28.08600
11442 SI 11442 SI SI1 11442 1.100000 28.08600
11443 SI 11443 SI SI1 11443 1.100000 28.08600
11444 SI 11444 SI SI1 11444 1.100000 28.08600
11445 SI 11445 SI SI1 11445 1.100000 28.08600
11446 SI 11446 SI SI1 11446 1.100000 28.08600
11447 SI 11447 SI SI1 11447 1.100000 28.08600
11448 SI 11448 SI SI1 11448 1.100000 28.08600
11449 SI 11449 SI SI1 11449 1.100000 28.08600
11450 SI 11450 SI SI1 11450 1.100000 28.08600
11451 SI 11451 SI SI1 11451 1.100000 28.08600
11452 SI 11452 SI SI1 11452 1.100000 28.08600
11453 SI 11453 SI SI1 11453 1.100000 28.08600
11454 SI 11454 SI SI1 11454 1.100000 28.08600
11455 SI 11455 SI SI1 11455 1.100000 28.08600
11456 SI 11456 SI SI1 11456 1.100000 28.08600
11457 SI 11457 SI SI1 11457 1.100000 28.08600
11458 SI 11458 SI SI1 11458 1.100000 28.08600
11459 SI 11459 SI SI1 11459 1.100000 28.08600
11460 SI 11460 SI SI1 11460 1.100000 28.08600
11461 SI 11461 SI SI1 11461 1.100000 28.08600
11462 SI 11462 SI SI1 11462 1.100000 28.08600
11463 SI 11463 SI SI1 11463 1.100000 28.08600
11464 SI 11464 SI SI1 11464 1.100000 28.08600
11465 SI 11465 SI SI1 11465 1.100000 28.08600
11466 SI 11466 SI SI1 11466 1.100000 28.08600
11467 SI 11467 SI SI1 11467 1.100000 28.08600
11468 SI 11468 SI SI1 11468 1.100000 28.08600
11469 SI 11469 SI SI1 11469 1.100000 28.08600
11470 SI 11470 SI SI1 11470 1.100000 28.08600
11471 SI 11471 SI SI1 11471 1.100000 28.08600
11472 SI 11472 SI SI1 11472 1.100000 28.08600
11473 SI 11473 SI SI1 11473 1.100000 28.08600
11474 SI 11474 SI SI1 11474 1.100000 28.08600
11475 SI 11475 SI SI1 11475 1.100000 28.08600
11476 SI 11476 SI SI1 11476 1.100000 28.08600
11477 SI 11477 SI SI1 11477 1.100000 28.08600
11478 SI 11478 SI SI1 11478 1.100000 28.08600
11479 SI 11479 SI SI1 11479 1.100000 28.08600
11480 SI 11480 SI SI1 11480 1.100000 28.08600
11481 SI 11481 SI SI1 11481 1.100000 28.08600
11482 SI 11482 SI SI1 11482 1.100000 28.08600
11483 SI 11483 SI SI1 11483 1.100000 28.08600
11484 SI 11484 SI SI1 11484 1.100000 28.08600
11485 SI 11485 SI SI1 11485 1.100000 28.08600
11486 SI 11486 SI SI1 11486 1.100000 28.08600
11487 SI 11487 SI SI1 11487 1.100000 28.08600
11488 SI 11488 SI SI1 11488 1.100000 28.08600
11489 SI 11489 SI SI1 11489 1.100000 28.08600
11490 SI 11490 SI SI1 11490 1.100000 28.08600
11491 SI 11491 SI SI1 11491 1.100000 28.08600
11492 SI 11492 SI SI1 11492 1.100000 28.08600
11493 SI 11493 SI SI1 11493 1.100000 28.08600
11494 SI 11494 SI SI1 11494 1.100000 28.08600
11495 SI 11495 SI SI1 11495 1.100000 28.08600
11496 SI 11496 SI SI1 11496 1.100000 28.08600
11497 SI 11497 SI SI1 11497 1.100000 28.08600
11498 SI 11498 SI SI1 11498 1.100000 28.08600
11499 SI 11499 SI SI1 11499 1.100000 28.08600
11500 SI 11500 SI SI1 11500 1.100000 28.08600
11501 SI 11501 SI SI1 11501 1.100000 28.08600
11502 SI 11502 SI SI1 11502 1.100000 28.08600
11503 SI 11503 SI SI1 11503 1.100000 28.08600
11504 SI 11504 SI SI1 11504 1.100000 28.08600
11505 SI 11505 SI SI1 11505 1.100000 28.08600
11506 SI 11506 SI SI1 11506 1.100000 28.08600
11507 SI 11507 SI SI1 11507 1.100000 28.08600
11508 SI 11508 SI SI1 11508 1.100000 28.08600
11509 SI 11509 SI SI1 11509 1.100000 28.08600
11510 SI 11510 SI SI1 11510 1.100000 28.08600
11511 SI 11511 SI SI1 11511 1.100000 28.08600
11512 SI 11512 SI SI1 11512 1.100000 28.08600
11513 SI 11513 SI SI1 11513 1.100000 28.08600
11514 SI 11514 SI SI1 11514 1.100000 28.08600
11515 SI 11515 SI SI1 11515 1.100000 28.08600
11516 SI 11516 SI SI1 11516 1.100000 28.08600
11517 SI 11517 SI SI1 11517 1.100000 28.08600
11518 SI 11518 SI SI1 11518 1.100000 28.08600
11519 SI 11519 SI SI1 11519 1.100000 28.08600
11520 SI 11520 SI SI1 11520 1.100000 28.08600
11521 SI 11521 SI SI1 11521 1.100000 28.08600
11522 SI 11522 SI SI1 11522 1.100000 28.08600
11523 SI 11523 SI SI1 11523 1.100000 28.08600
11524 SI 11524 SI SI1 11524 1.100000 28.08600
11525 SI 11525 SI SI1 11525 1.100000 28.08600
11526 SI 11526 SI SI1 11526 1.100000 28.08600
11527 SI 11527 SI SI1 11527 1.100000 28.08600
11528 SI 11528 SI SI1 11528 1.100000 28.08600
11529 SI 11529 SI SI1 11529 1.100000 28.08600
11530 SI 11530 SI SI1 11530 1.100000 28.08600
11531 SI 11531 SI SI1 11531 1.100000 28.08600
11532 SI 11532 SI SI1 11532 1.100000 28.08600
11533 SI 11533 SI SI1 11533 1.100000 28.08600
11534 SI 11534 SI SI1 11534 1.100000 28.08600
11535 SI 11535 SI SI1 11535 1.100000 28.08600
11536 SI 11536 SI SI1 11536 1.100000 28.08600
11537 SI 11537 SI SI1 11537 1.100000 28.08600
11538 SI 11538 SI SI1 11538 1.100000 28.08600
11539 SI 11539 SI SI1 11539 1.100000 28.08600
11540 SI 11540 SI SI1 11540 1.100000 28.08600
11541 SI 11541 SI SI1 11541 1.100000 28.08600
11542 SI 11542 SI SI1 11542 1.100000 28.08600
11543 SI 11543 SI SI1 11543 1.100000 28.08600
11544 SI 11544 SI SI1 11544 1.100000 28.08600
11545 SI 11545 SI SI1 11545 1.100000 28.08600
11546 SI 11546 SI SI1 11546 1.100000 28.08600
11547 SI 11547 SI SI1 11547 1.100000 28.08600
11548 SI 11548 SI SI1 11548 1.100000 28.08600
11549 SI 11549 SI SI1 11549 1.100000 28.08600
11550 SI 11550 SI SI1 11550 1.100000 28.08600
11551 SI 11551 SI SI1 11551 1.100000 28.08600
11552 SI 11552 SI SI1 11552 1.100000 28.08600
11553 SI 11553 SI SI1 11553 1.100000 28.08600
11554 SI 11554 SI SI1 11554 1.100000 28.08600
11555 SI 11555 SI SI1 11555 1.100000 28.08600
11556 SI 11556 SI SI1 11556 1.100000 28.08600
11557 SI 11557 SI SI1 11557 1.100000 28.08600
11558 SI 11558 SI SI1 11558 1.100000 28.08600
11559 SI 11559 SI SI1 11559 1.100000 28.08600
11560 SI 11560 SI SI1 11560 1.100000 28.08600
11561 SI 11561 SI SI1 11561 1.100000 28.08600
11562 SI 11562 SI SI1 11562 1.100000 28.08600
11563 SI 11563 SI SI1 11563 1.100000 28.08600
11564 SI 11564 SI SI1 11564 1.100000 28.08600
11565 SI 11565 SI SI1 11565 1.100000 28.08600
11566 SI 11566 SI SI1 11566 1.100000 28.08600
11567 SI 11567 SI SI1 11567 1.100000 28.08600
11568 SI 11568 SI SI1 11568 1.100000 28.08600
11569 SI 11569 SI SI1 11569 1.100000 28.08600
11570 SI 11570 SI SI1 11570 1.100000 28.08600
11571 SI 11571 SI SI1 11571 1.100000 28.08600
11572 SI 11572 SI SI1 11572 1.100000 28.08600
11573 SI 11573 SI SI1 11573 1.100000 28.08600
11574 SI 11574 SI SI1 11574 1.100000 28.08600
11575 SI 11575 SI SI1 11575 1.100000 28.08600
11576 SI 11576 SI SI1 11576 1.100000 28.08600
11577 SI 11577 SI SI1 11577 1.100000 28.08600
11578 SI 11578 SI SI1 11578 1.100000 28.08600
11579 SI 11579 SI SI1 11579 1.100000 28.08600
11580 SI 11580 SI SI1 11580 1.100000 28.08600
11581 SI 11581 SI SI1 11581 1.100000 28.08600
11582 SI 11582 SI SI1 11582 1.100000 28.08600
11583 SI 11583 SI SI1 11583 1.100000 28.08600
11584 SI 11584 SI SI1 11584 1.100000 28.08600
11585 SI 11585 SI SI1 11585 1.100000 28.08600
11586 SI 11586 SI SI1 11586 1.100000 28.08600
11587 SI 11587 SI SI1 11587 1.100000 28.08600
11588 SI 11588 SI SI1 11588 1.100000 28.08600
11589 SI 11589 SI SI1 11589 1.100000 28.08600
11590 SI 11590 SI SI1 11590 1.100000 28.08600
11591 SI 11591 SI SI1 11591 1.100000 28.08600
11592 SI 11592 SI SI1 11592 1.100000 28.08600
11593 SI 11593 SI SI1 11593 1.100000 28.08600
11594 SI 11594 SI SI1 11594 1.100000 28.08600
11595 SI 11595 SI SI1 11595 1.100000 28.08600
11596 SI 11596 SI SI1 11596 1.100000 28.08600
11597 SI 11597 SI SI1 11597 1.100000 28.08600
11598 SI 11598 SI SI1 11598 1.100000 28.08600
11599 SI 11599 SI SI1 11599 1.100000 28.08600
11600 SI 11600 SI SI1 11600 1.100000 28.08600
11601 SI 11601 SI SI1 11601 1.100000 28.08600
11602 SI 11602 SI SI1 11602 1.100000 28.08600
11603 SI 11603 SI SI1 11603 1.100000 28.08600
11604 SI 11604 SI SI1 11604 1.100000 28.08600
11605 SI 11605 SI SI1 11605 1.100000 28.08600
11606 SI 11606 SI SI1 11606 1.100000 28.08600
11607 SI 11607 SI SI1 11607 1.100000 28.08600
11608 SI 11608 SI SI1 11608 1.100000 28.08600
11609 SI 11609 SI SI1 11609 1.100000 28.08600
11610 SI 11610 SI SI1 11610 1.100000 28.08600
11611 SI 11611 SI SI1 11611 1.100000 28.08600
11612 SI 11612 SI SI1 11612 1.100000 28.08600
11613 SI 11613 SI SI1 11613 1.100000 28.08600
11614 SI 11614 SI SI1 11614 1.100000 28.08600
11615 SI 11615 SI SI1 11615 1.100000 28.08600
11616 SI 11616 SI SI1 11616 1.100000 28.08600
11617 SI 11617 SI SI1 11617 1.100000 28.08600
11618 SI 11618 SI SI1 11618 1.100000 28.08600
11619 SI 11619 SI SI1 11619 1.100000 28.08600
11620 SI 11620 SI SI1 11620 1.100000 28.08600
11621 SI 11621 SI SI1 11621 1.100000 28.08600
11622 SI 11622 SI SI1 11622 1.100000 28.08600
11623 SI 11623 SI SI1 11623 1.100000 28.08600
11624 SI 11624 SI SI1 11624 1.100000 28.08600
11625 SI 11625 SI SI1 11625 1.100000 28.08600
11626 SI 11626 SI SI1 11626 1.100000 28.08600
11627 SI 11627 SI SI1 11627 1.100000 28.08600
11628 SI 11628 SI SI1 11628 1.100000 28.08600
11629 SI 11629 SI SI1 11629 1.100000 28.08600
11630 SI 11630 SI SI1 11630 1.100000 28.08600
11631 SI 11631 SI SI1 11631 1.100000 28.08600
11632 SI 11632 SI SI1 11632 1.100000 28.08600
11633 SI 11633 SI SI1 11633 1.100000 28.08600
11634 SI 11634 SI SI1 11634 1.100000 28.08600
11635 SI 11635 SI SI1 11635 1.100000 28.08600
11636 SI 11636 SI SI1 11636 1.100000 28.08600
11637 SI 11637 SI SI1 11637 1.100000 28.08600
11638 SI 11638 SI SI1 11638 1.100000 28.08600
11639 SI 11639 SI SI1 11639 1.100000 28.08600
11640 SI 11640 SI SI1 11640 1.100000 28.08600
11641 SI 11641 SI SI1 11641 1.100000 28.08600
11642 SI 11642 SI SI1 11642 1.100000 28.08600
11643 SI 11643 SI SI1 11643 1.100000 28.08600
11644 SI 11644 SI SI1 11644 1.100000 28.08600
11645 SI 11645 SI SI1 11645 1.100000 28.08600
11646 SI 11646 SI SI1 11646 1.100000 28.08600
11647 SI 11647 SI SI1 11647 1.100000 28.08600
11648 SI 11648 SI SI1 11648 1.100000 28.08600
11649 SI 11649 SI SI1 11649 1.100000 28.08600
11650 SI 11650 SI SI1 11650 1.100000 28.08600
11651 SI 11651 SI SI1 11651 1.100000 28.08600
11652 SI 11652 SI SI1 11652 1.100000 28.08600
11653 SI 11653 SI SI1 11653 1.100000 28.08600
11654 SI 11654 SI SI1 11654 1.100000 28.08600
11655 SI 11655 SI SI1 11655 1.100000 28.08600
11656 SI 11656 SI SI1 11656 1.100000 28.08600
11657 SI 11657 SI SI1 11657 1.100000 28.08600
11658 SI 11658 SI SI1 11658 1.100000 28.08600
11659 SI 11659 SI SI1 11659 1.100000 28.08600
11660 SI 11660 SI SI1 11660 1.100000 28.08600
11661 SI 11661 SI SI1 11661 1.100000 28.08600
11662 SI 11662 SI SI1 11662 1.100000 28.08600
11663 SI 11663 SI SI1 11663 1.100000 28.08600
11664 SI 11664 SI SI1 11664 1.100000 28.08600
11665 SI 11665 SI SI1 11665 1.100000 28.08600
11666 SI 11666 SI SI1 11666 1.100000 28.08600
11667 SI 11667 SI SI1 11667 1.100000 28.08600
11668 SI 11668 SI SI1 11668 1.100000 28.08600
11669 SI 11669 SI SI1 11669 1.100000 28.08600
11670 SI 11670 SI SI1 11670 1.100000 28.08600
11671 SI 11671 SI SI1 11671 1.100000 28.08600
11672 SI 11672 SI SI1 11672 1.100000 28.08600
11673 SI 11673 SI SI1 11673 1.100000 28.08600
11674 SI 11674 SI SI1 11674 1.100000 28.08600
11675 SI 11675 SI SI1 11675 1.100000 28.08600
11676 SI 11676 SI SI1 11676 1.100000 28.08600
11677 SI 11677 SI SI1 11677 1.100000 28.08600
11678 SI 11678 SI SI1 11678 1.100000 28.08600
11679 SI 11679 SI SI1 11679 1.100000 28.08600
11680 SI 11680 SI SI1 11680 1.100000 28.08600
11681 SI 11681 SI SI1 11681 1.100000 28.08600
11682 SI 11682 SI SI1 11682 1.100000 28.08600
11683 SI 11683 SI SI1 11683 1.100000 28.08600
11684 SI 11684 SI SI1 11684 1.100000 28.08600
11685 SI 11685 SI SI1 11685 1.100000 28.08600
11686 SI 11686 SI SI1 11686 1.100000 28.08600
11687 SI 11687 SI SI1 11687 1.100000 28.08600
11688 SI 11688 SI SI1 11688 1.100000 28.08600
11689 SI 11689 SI SI1 11689 1.100000 28.08600
11690 SI 11690 SI SI1 11690 1.100000 28.08600
11691 SI 11691 SI SI1 11691 1.100000 28.08600
11692 SI 11692 SI SI1 11692 1.100000 28.08600
11693 SI 11693 SI SI1 11693 1.100000 28.08600
11694 SI 11694 SI SI1 11694 1.100000 28.08600
11695 SI 11695 SI SI1 11695 1.100000 28.08600
11696 SI 11696 SI SI1 11696 1.100000 28.08600
11697 SI 11697 SI SI1 11697 1.100000 28.08600
11698 SI 11698 SI SI1 11698 1.100000 28.08600
11699 SI 11699 SI SI1 11699 1.100000 28.08600
11700 SI 11700 SI SI1 11700 1.100000 28.08600
11701 SI 11701 SI SI1 11701 1.100000 28.08600
11702 SI 11702 SI SI1 11702 1.100000 28.08600
11703 SI 11703 SI SI1 11703 1.100000 28.08600
11704 SI 11704 SI SI1 11704 1.100000 28.08600
11705 SI 11705 SI SI1 11705 1.100000 28.08600
11706 SI 11706 SI SI1 11706 1.100000 28.08600
11707 SI 11707 SI SI1 11707 1.100000 28.08600
11708 SI 11708 SI SI1 11708 1.100000 28.08600
11709 SI 11709 SI SI1 11709 1.100000 28.08600
11710 SI 11710 SI SI1 11710 1.100000 28.08600
11711 SI 11711 SI SI1 11711 1.100000 28.08600
11712 SI 11712 SI SI1 11712 1.100000 28.08600
11713 SI 11713 SI SI1 11713 1.100000 28.08600
11714 SI 11714 SI SI1 11714 1.100000 28.08600
11715 SI 11715 SI SI1 11715 1.100000 28.08600
11716 SI 11716 SI SI1 11716 1.100000 28.08600
11717 SI 11717 SI SI1 11717 1.100000 28.08600
11718 SI 11718 SI SI1 11718 1.100000 28.08600
11719 SI 11719 SI SI1 11719 1.100000 28.08600
11720 SI 11720 SI SI1 11720 1.100000 28.08600
11721 SI 11721 SI SI1 11721 1.100000 28.08600
11722 SI 11722 SI SI1 11722 1.100000 28.08600
11723 SI 11723 SI SI1 11723 1.100000 28.08600
11724 SI 11724 SI SI1 11724 1.100000 28.08600
11725 SI 11725 SI SI1 11725 1.100000 28.08600
11726 SI 11726 SI SI1 11726 1.100000 28.08600
11727 SI 11727 SI SI1 11727 1.100000 28.08600
11728 SI 11728 SI SI1 11728 1.100000 28.08600
11729 SI 11729 SI SI1 11729 1.100000 28.08600
11730 SI 11730 SI SI1 11730 1.100000 28.08600
11731 SI 11731 SI SI1 11731 1.100000 28.08600
11732 SI 11732 SI SI1 11732 1.100000 28.08600
11733 SI 11733 SI SI1 11733 1.100000 28.08600
11734 SI 11734 SI SI1 11734 1.100000 28.08600
11735 SI 11735 SI SI1 11735 1.100000 28.08600
11736 SI 11736 SI SI1 11736 1.100000 28.08600
11737 SI 11737 SI SI1 11737 1.100000 28.08600
11738 SI 11738 SI SI1 11738 1.100000 28.08600
11739 SI 11739 SI SI1 11739 1.100000 28.08600
11740 SI 11740 SI SI1 11740 1.100000 28.08600
11741 SI 11741 SI SI1 11741 1.100000 28.08600
11742 SI 11742 SI SI1 11742 1.100000 28.08600
11743 SI 11743 SI SI1 11743 1.100000 28.08600
11744 SI 11744 SI SI1 11744 1.100000 28.08600
11745 SI 11745 SI SI1 11745 1.100000 28.08600
11746 SI 11746 SI SI1 11746 1.100000 28.08600
11747 SI 11747 SI SI1 11747 1.100000 28.08600
11748 SI 11748 SI SI1 11748 1.100000 28.08600
11749 SI 11749 SI SI1 11749 1.100000 28.08600
11750 SI 11750 SI SI1 11750 1.100000 28.08600
11751 SI 11751 SI SI1 11751 1.100000 28.08600
11752 SI 11752 SI SI1 11752 1.100000 28.08600
11753 SI 11753 SI SI1 11753 1.100000 28.08600
11754 SI 11754 SI SI1 11754 1.100000 28.08600
11755 SI 11755 SI SI1 11755 1.100000 28.08600
11756 SI 11756 SI SI1 11756 1.100000 28.08600
11757 SI 11757 SI SI1 11757 1.100000 28.08600
11758 SI 11758 SI SI1 11758 1.100000 28.08600
11759 SI 11759 SI SI1 11759 1.100000 28.08600
11760 SI 11760 SI SI1 11760 1.100000 28.08600
11761 SI 11761 SI SI1 11761 1.100000 28.08600
11762 SI 11762 SI SI1 11762 1.100000 28.08600
11763 SI 11763 SI SI1 11763 1.100000 28.08600
11764 SI 11764 SI SI1 11764 1.100000 28.08600
11765 SI 11765 SI SI1 11765 1.100000 28.08600
11766 SI 11766 SI SI1 11766 1.100000 28.08600
11767 SI 11767 SI SI1 11767 1.100000 28.08600
11768 SI 11768 SI SI1 11768 1.100000 28.08600
11769 SI 11769 SI SI1 11769 1.100000 28.08600
11770 SI 11770 SI SI1 11770 1.100000 28.08600
11771 SI 11771 SI SI1 11771 1.100000 28.08600
11772 SI 11772 SI SI1 11772 1.100000 28.08600
11773 SI 11773 SI SI1 11773 1.100000 28.08600
11774 SI 11774 SI SI1 11774 1.100000 28.08600
11775 SI 11775 SI SI1 11775 1.100000 28.08600
11776 SI 11776 SI SI1 11776 1.100000 28.08600
11777 SI 11777 SI SI1 11777 1.100000 28.08600
11778 SI 11778 SI SI1 11778 1.100000 28.08600
11779 SI 11779 SI SI1 11779 1.100000 28.08600
11780 SI 11780 SI SI1 11780 1.100000 28.08600
11781 SI 11781 SI SI1 11781 1.100000 28.08600
11782 SI 11782 SI SI1 11782 1.100000 28.08600
11783 SI 11783 SI SI1 11783 1.100000 28.08600
11784 SI 11784 SI SI1 11784 1.100000 28.08600
11785 SI 11785 SI SI1 11785 1.100000 28.08600
11786 SI 11786 SI SI1 11786 1.100000 28.08600
11787 SI 11787 SI SI1 11787 1.100000 28.08600
11788 SI 11788 SI SI1 11788 1.100000 28.08600
11789 SI 11789 SI SI1 11789 1.100000 28.08600
11790 SI 11790 SI SI1 11790 1.100000 28.08600
11791 SI 11791 SI SI1 11791 1.100000 28.08600
11792 SI 11792 SI SI1 11792 1.100000 28.08600
11793 SI 11793 SI SI1 11793 1.100000 28.08600
11794 SI 11794 SI SI1 11794 1.100000 28.08600
11795 SI 11795 SI SI1 11795 1.100000 28.08600
11796 SI 11796 SI SI1 11796 1.100000 28.08600
11797 SI 11797 SI SI1 11797 1.100000 28.08600
11798 SI 11798 SI SI1 11798 1.100000 28.08600
11799 SI 11799 SI SI1 11799 1.100000 28.08600
11800 SI 11800 SI SI1 11800 1.100000 28.08600
11801 SI 11801 SI SI1 11801 1.100000 28.08600
11802 SI 11802 SI SI1 11802 1.100000 28.08600
11803 SI 11803 SI SI1 11803 1.100000 28.08600
11804 SI 11804 SI SI1 11804 1.100000 28.08600
11805 SI 11805 SI SI1 11805 1.100000 28.08600
11806 SI 11806 SI SI1 11806 1.100000 28.08600
11807 SI 11807 SI SI1 11807 1.100000 28.08600
11808 SI 11808 SI SI1 11808 1.100000 28.08600
11809 SI 11809 SI SI1 11809 1.100000 28.08600
11810 SI 11810 SI SI1 11810 1.100000 28.08600
11811 SI 11811 SI SI1 11811 1.100000 28.08600
11812 SI 11812 SI SI1 11812 1.100000 28.08600
11813 SI 11813 SI SI1 11813 1.100000 28.08600
11814 SI 11814 SI SI1 11814 1.100000 28.08600
11815 SI 11815 SI SI1 11815 1.100000 28.08600
11816 SI 11816 SI SI1 11816 1.100000 28.08600
11817 SI 11817 SI SI1 11817 1.100000 28.08600
11818 SI 11818 SI SI1 11818 1.100000 28.08600
11819 SI 11819 SI SI1 11819 1.100000 28.08600
11820 SI 11820 SI SI1 11820 1.100000 28.08600
11821 SI 11821 SI SI1 11821 1.100000 28.08600
11822 SI 11822 SI SI1 11822 1.100000 28.08600
11823 SI 11823 SI SI1 11823 1.100000 28.08600
11824 SI 11824 SI SI1 11824 1.100000 28.08600
11825 SI 11825 SI SI1 11825 1.100000 28.08600
11826 SI 11826 SI SI1 11826 1.100000 28.08600
11827 SI 11827 SI SI1 11827 1.100000 28.08600
11828 SI 11828 SI SI1 11828 1.100000 28.08600
11829 SI 11829 SI SI1 11829 1.100000 28.08600
11830 SI 11830 SI SI1 11830 1.100000 28.08600
11831 SI 11831 SI SI1 11831 1.100000 28.08600
11832 SI 11832 SI SI1 11832 1.100000 28.08600
11833 SI 11833 SI SI1 11833 1.100000 28.08600
11834 SI 11834 SI SI1 11834 1.100000 28.08600
11835 SI 11835 SI SI1 11835 1.100000 28.08600
11836 SI 11836 SI SI1 11836 1.100000 28.08600
11837 SI 11837 SI SI1 11837 1.100000 28.08600
11838 SI 11838 SI SI1 11838 1.100000 28.08600
11839 SI 11839 SI SI1 11839 1.100000 28.08600
11840 SI 11840 SI SI1 11840 1.100000 28.08600
11841 SI 11841 SI SI1 11841 1.100000 28.08600
11842 SI 11842 SI SI1 11842 1.100000 28.08600
11843 SI 11843 SI SI1 11843 1.100000 28.08600
11844 SI 11844 SI SI1 11844 1.100000 28.08600
11845 SI 11845 SI SI1 11845 1.100000 28.08600
11846 SI 11846 SI SI1 11846 1.100000 28.08600
11847 SI 11847 SI SI1 11847 1.100000 28.08600
11848 SI 11848 SI SI1 11848 1.100000 28.08600
11849 SI 11849 SI SI1 11849 1.100000 28.08600
11850 SI 11850 SI SI1 11850 1.100000 28.08600
11851 SI 11851 SI SI1 11851 1.100000 28.08600
11852 SI 11852 SI SI1 11852 1.100000 28.08600
11853 SI 11853 SI SI1 11853 1.100000 28.08600
11854 SI 11854 SI SI1 11854 1.100000 28.08600
11855 SI 11855 SI SI1 11855 1.100000 28.08600
11856 SI 11856 SI SI1 11856 1.100000 28.08600
11857 SI 11857 SI SI1 11857 1.100000 28.08600
11858 SI 11858 SI SI1 11858 1.100000 28.08600
11859 SI 11859 SI SI1 11859 1.100000 28.08600
11860 SI 11860 SI SI1 11860 1.100000 28.08600
11861 SI 11861 SI SI1 11861 1.100000 28.08600
11862 SI 11862 SI SI1 11862 1.100000 28.08600
11863 SI 11863 SI SI1 11863 1.100000 28.08600
11864 SI 11864 SI SI1 11864 1.100000 28.08600
11865 SI 11865 SI SI1 11865 1.100000 28.08600
11866 SI 11866 SI SI1 11866 1.100000 28.08600
11867 SI 11867 SI SI1 11867 1.100000 28.08600
11868 SI 11868 SI SI1 11868 1.100000 28.08600
11869 SI 11869 SI SI1 11869 1.100000 28.08600
11870 SI 11870 SI SI1 11870 1.100000 28.08600
11871 SI 11871 SI SI1 11871 1.100000 28.08600
11872 SI 11872 SI SI1 11872 1.100000 28.08600
11873 SI 11873 SI SI1 11873 1.100000 28.08600
11874 SI 11874 SI SI1 11874 1.100000 28.08600
11875 SI 11875 SI SI1 11875 1.100000 28.08600
11876 SI 11876 SI SI1 11876 1.100000 28.08600
11877 SI 11877 SI SI1 11877 1.100000 28.08600
11878 SI 11878 SI SI1 11878 1.100000 28.08600
11879 SI 11879 SI SI1 11879 1.100000 28.08600
11880 SI 11880 SI SI1 11880 1.100000 28.08600
11881 SI 11881 SI SI1 11881 1.100000 28.08600
11882 SI 11882 SI SI1 11882 1.100000 28.08600
11883 SI 11883 SI SI1 11883 1.100000 28.08600
11884 SI 11884 SI SI1 11884 1.100000 28.08600
11885 SI 11885 SI SI1 11885 1.100000 28.08600
11886 SI 11886 SI SI1 11886 1.100000 28.08600
11887 SI 11887 SI SI1 11887 1.100000 28.08600
11888 SI 11888 SI SI1 11888 1.100000 28.08600
11889 SI 11889 SI SI1 11889 1.100000 28.08600
11890 SI 11890 SI SI1 11890 1.100000 28.08600
11891 SI 11891 SI SI1 11891 1.100000 28.08600
11892 SI 11892 SI SI1 11892 1.100000 28.08600
11893 SI 11893 SI SI1 11893 1.100000 28.08600
11894 SI 11894 SI SI1 11894 1.100000 28.08600
11895 SI 11895 SI SI1 11895 1.100000 28.08600
11896 SI 11896 SI SI1 11896 1.100000 28.08600
11897 SI 11897 SI SI1 11897 1.100000 28.08600
11898 SI 11898 SI SI1 11898 1.100000 28.08600
11899 SI 11899 SI SI1 11899 1.100000 28.08600
11900 SI 11900 SI SI1 11900 1.100000 28.08600
11901 SI 11901 SI SI1 11901 1.100000 28.08600
11902 SI 11902 SI SI1 11902 1.100000 28.08600
11903 SI 11903 SI SI1 11903 1.100000 28.08600
11904 SI 11904 SI SI1 11904 1.100000 28.08600
11905 SI 11905 SI SI1 11905 1.100000 28.08600
11906 SI 11906 SI SI1 11906 1.100000 28.08600
11907 SI 11907 SI SI1 11907 1.100000 28.08600
11908 SI 11908 SI SI1 11908 1.100000 28.08600
11909 SI 11909 SI SI1 11909 1.100000 28.08600
11910 SI 11910 SI SI1 11910 1.100000 28.08600
11911 SI 11911 SI SI1 11911 1.100000 28.08600
11912 SI 11912 SI SI1 11912 1.100000 28.08600
11913 SI 11913 SI SI1 11913 1.100000 28.08600
11914 SI 11914 SI SI1 11914 1.100000 28.08600
11915 SI 11915 SI SI1 11915 1.100000 28.08600
11916 SI 11916 SI SI1 11916 1.100000 28.08600
11917 SI 11917 SI SI1 11917 1.100000 28.08600
11918 SI 11918 SI SI1 11918 1.100000 28.08600
11919 SI 11919 SI SI1 11919 1.100000 28.08600
11920 SI 11920 SI SI1 11920 1.100000 28.08600
11921 SI 11921 SI SI1 11921 1.100000 28.08600
11922 SI 11922 SI SI1 11922 1.100000 28.08600
11923 SI 11923 SI SI1 11923 1.100000 28.08600
11924 SI 11924 SI SI1 11924 1.100000 28.08600
11925 SI 11925 SI SI1 11925 1.100000 28.08600
11926 SI 11926 SI SI1 11926 1.100000 28.08600
11927 SI 11927 SI SI1 11927 1.100000 28.08600
11928 SI 11928 SI SI1 11928 1.100000 28.08600
11929 SI 11929 SI SI1 11929 1.100000 28.08600
11930 SI 11930 SI SI1 11930 1.100000 28.08600
11931 SI 11931 SI SI1 11931 1.100000 28.08600
11932 SI 11932 SI SI1 11932 1.100000 28.08600
11933 SI 11933 SI SI1 11933 1.100000 28.08600
11934 SI 11934 SI SI1 11934 1.100000 28.08600
11935 SI 11935 SI SI1 11935 1.100000 28.08600
11936 SI 11936 SI SI1 11936 1.100000 28.08600
11937 SI 11937 SI SI1 11937 1.100000 28.08600
11938 SI 11938 SI SI1 11938 1.100000 28.08600
11939 SI 11939 SI SI1 11939 1.100000 28.08600
11940 SI 11940 SI SI1 11940 1.100000 28.08600
11941 SI 11941 SI SI1 11941 1.100000 28.08600
11942 SI 11942 SI SI1 11942 1.100000 28.08600
11943 SI 11943 SI SI1 11943 1.100000 28.08600
11944 SI 11944 SI SI1 11944 1.100000 28.08600
11945 SI 11945 SI SI1 11945 1.100000 28.08600
11946 SI 11946 SI SI1 11946 1.100000 28.08600
11947 SI 11947 SI SI1 11947 1.100000 28.08600
11948 SI 11948 SI SI1 11948 1.100000 28.08600
11949 SI 11949 SI SI1 11949 1.100000 28.08600
11950 SI 11950 SI SI1 11950 1.100000 28.08600
11951 SI 11951 SI SI1 11951 1.100000 28.08600
11952 SI 11952 SI SI1 11952 1.100000 28.08600
11953 SI 11953 SI SI1 11953 1.100000 28.08600
11954 SI 11954 SI SI1 11954 1.100000 28.08600
11955 SI 11955 SI SI1 11955 1.100000 28.08600
11956 SI 11956 SI SI1 11956 1.100000 28.08600
11957 SI 11957 SI SI1 11957 1.100000 28.08600
11958 SI 11958 SI SI1 11958 1.100000 28.08600
11959 SI 11959 SI SI1 11959 1.100000 28.08600
11960 SI 11960 SI SI1 11960 1.100000 28.08600
11961 SI 11961 SI SI1 11961 1.100000 28.08600
11962 SI 11962 SI SI1 11962 1.100000 28.08600
11963 SI 11963 SI SI1 11963 1.100000 28.08600
11964 SI 11964 SI SI1 11964 1.100000 28.08600
11965 SI 11965 SI SI1 11965 1.100000 28.08600
11966 SI 11966 SI SI1 11966 1.100000 28.08600
11967 SI 11967 SI SI1 11967 1.100000 28.08600
11968 SI 11968 SI SI1 11968 1.100000 28.08600
11969 SI 11969 SI SI1 11969 1.100000 28.08600
11970 SI 11970 SI SI1 11970 1.100000 28.08600
11971 SI 11971 SI SI1 11971 1.100000 28.08600
11972 SI 11972 SI SI1 11972 1.100000 28.08600
11973 SI 11973 SI SI1 11973 1.100000 28.08600
11974 SI 11974 SI SI1 11974 1.100000 28.08600
11975 SI 11975 SI SI1 11975 1.100000 28.08600
11976 SI 11976 SI SI1 11976 1.100000 28.08600
11977 SI 11977 SI SI1 11977 1.100000 28.08600
11978 SI 11978 SI SI1 11978 1.100000 28.08600
11979 SI 11979 SI SI1 11979 1.100000 28.08600
11980 SI 11980 SI SI1 11980 1.100000 28.08600
11981 SI 11981 SI SI1 11981 1.100000 28.08600
11982 SI 11982 SI SI1 11982 1.100000 28.08600
11983 SI 11983 SI SI1 11983 1.100000 28.08600
11984 SI 11984 SI SI1 11984 1.100000 28.08600
11985 SI 11985 SI SI1 11985 1.100000 28.08600
11986 SI 11986 SI SI1 11986 1.100000 28.08600
11987 SI 11987 SI SI1 11987 1.100000 28.08600
11988 SI 11988 SI SI1 11988 1.100000 28.08600
11989 SI 11989 SI SI1 11989 1.100000 28.08600
11990 SI 11990 SI SI1 11990 1.100000 28.08600
11991 SI 11991 SI SI1 11991 1.100000 28.08600
11992 SI 11992 SI SI1 11992 1.100000 28.08600
11993 SI 11993 SI SI1 11993 1.100000 28.08600
11994 SI 11994 SI SI1 11994 1.100000 28.08600
11995 SI 11995 SI SI1 11995 1.100000 28.08600
11996 SI 11996 SI SI1 11996 1.100000 28.08600
11997 SI 11997 SI SI1 11997 1.100000 28.08600
11998 SI 11998 SI SI1 11998 1.100000 28.08600
11999 SI 11999 SI SI1 11999 1.100000 28.08600
12000 SI 12000 SI SI1 12000 1.100000 28.08600
12001 SI 12001 SI SI1 12001 1.100000 28.08600
12002 SI 12002 SI SI1 12002 1.100000 28.08600
12003 SI 12003 SI SI1 12003 1.100000 28.08600
12004 SI 12004 SI SI1 12004 1.100000 28.08600
12005 SI 12005 SI SI1 12005 1.100000 28.08600
12006 SI 12006 SI SI1 12006 1.100000 28.08600
12007 SI 12007 SI SI1 12007 1.100000 28.08600
12008 SI 12008 SI SI1 12008 1.100000 28.08600
12009 SI 12009 SI SI1 12009 1.100000 28.08600
12010 SI 12010 SI SI1 12010 1.100000 28.08600
12011 SI 12011 SI SI1 12011 1.100000 28.08600
12012 SI 12012 SI SI1 12012 1.100000 28.08600
12013 SI 12013 SI SI1 12013 1.100000 28.08600
12014 SI 12014 SI SI1 12014 1.100000 28.08600
12015 SI 12015 SI SI1 12015 1.100000 28.08600
12016 SI 12016 SI SI1 12016 1.100000 28.08600
12017 SI 12017 SI SI1 12017 1.100000 28.08600
12018 SI 12018 SI SI1 12018 1.100000 28.08600
12019 SI 12019 SI SI1 12019 1.100000 28.08600
12020 SI 12020 SI SI1 12020 1.100000 28.08600
12021 SI 12021 SI SI1 12021 1.100000 28.08600
12022 SI 12022 SI SI1 12022 1.100000 28.08600
12023 SI 12023 SI SI1 12023 1.100000 28.08600
12024 SI 12024 SI SI1 12024 1.100000 28.08600
12025 SI 12025 SI SI1 12025 1.100000 28.08600
12026 SI 12026 SI SI1 12026 1.100000 28.08600
12027 SI 12027 SI SI1 12027 1.100000 28.08600
12028 SI 12028 SI SI1 12028 1.100000 28.08600
12029 SI 12029 SI SI1 12029 1.100000 28.08600
12030 SI 12030 SI SI1 12030 1.100000 28.08600
12031 SI 12031 SI SI1 12031 1.100000 28.08600
12032 SI 12032 SI SI1 12032 1.100000 28.08600
12033 SI 12033 SI SI1 12033 1.100000 28.08600
12034 SI 12034 SI SI1 12034 1.100000 28.08600
12035 SI 12035 SI SI1 12035 1.100000 28.08600
12036 SI 12036 SI SI1 12036 1.100000 28.08600
12037 SI 12037 SI SI1 12037 1.100000 28.08600
12038 SI 12038 SI SI1 12038 1.100000 28.08600
12039 SI 12039 SI SI1 12039 1.100000 28.08600
12040 SI 12040 SI SI1 12040 1.100000 28.08600
12041 SI 12041 SI SI1 12041 1.100000 28.08600
12042 SI 12042 SI SI1 12042 1.100000 28.08600
12043 SI 12043 SI SI1 12043 1.100000 28.08600
12044 SI 12044 SI SI1 12044 1.100000 28.08600
12045 SI 12045 SI SI1 12045 1.100000 28.08600
12046 SI 12046 SI SI1 12046 1.100000 28.08600
12047 SI 12047 SI SI1 12047 1.100000 28.08600
12048 SI 12048 SI SI1 12048 1.100000 28.08600
12049 SI 12049 SI SI1 12049 1.100000 28.08600
12050 SI 12050 SI SI1 12050 1.100000 28.08600
12051 SI 12051 SI SI1 12051 1.100000 28.08600
12052 SI 12052 SI SI1 12052 1.100000 28.08600
12053 SI 12053 SI SI1 12053 1.100000 28.08600
12054 SI 12054 SI SI1 12054 1.100000 28.08600
12055 SI 12055 SI SI1 12055 1.100000 28.08600
12056 SI 12056 SI SI1 12056 1.100000 28.08600
12057 SI 12057 SI SI1 12057 1.100000 28.08600
12058 SI 12058 SI SI1 12058 1.100000 28.08600
12059 SI 12059 SI SI1 12059 1.100000 28.08600
12060 SI 12060 SI SI1 12060 1.100000 28.08600
12061 SI 12061 SI SI1 12061 1.100000 28.08600
12062 SI 12062 SI SI1 12062 1.100000 28.08600
12063 SI 12063 SI SI1 12063 1.100000 28.08600
12064 SI 12064 SI SI1 12064 1.100000 28.08600
12065 SI 12065 SI SI1 12065 1.100000 28.08600
12066 SI 12066 SI SI1 12066 1.100000 28.08600
12067 SI 12067 SI SI1 12067 1.100000 28.08600
12068 SI 12068 SI SI1 12068 1.100000 28.08600
12069 SI 12069 SI SI1 12069 1.100000 28.08600
12070 SI 12070 SI SI1 12070 1.100000 28.08600
12071 SI 12071 SI SI1 12071 1.100000 28.08600
12072 SI 12072 SI SI1 12072 1.100000 28.08600
12073 SI 12073 SI SI1 12073 1.100000 28.08600
12074 SI 12074 SI SI1 12074 1.100000 28.08600
12075 SI 12075 SI SI1 12075 1.100000 28.08600
12076 SI 12076 SI SI1 12076 1.100000 28.08600
12077 SI 12077 SI SI1 12077 1.100000 28.08600
12078 SI 12078 SI SI1 12078 1.100000 28.08600
12079 SI 12079 SI SI1 12079 1.100000 28.08600
12080 SI 12080 SI SI1 12080 1.100000 28.08600
12081 SI 12081 SI SI1 12081 1.100000 28.08600
12082 SI 12082 SI SI1 12082 1.100000 28.08600
12083 SI 12083 SI SI1 12083 1.100000 28.08600
12084 SI 12084 SI SI1 12084 1.100000 28.08600
12085 SI 12085 SI SI1 12085 1.100000 28.08600
12086 SI 12086 SI SI1 12086 1.100000 28.08600
12087 SI 12087 SI SI1 12087 1.100000 28.08600
12088 SI 12088 SI SI1 12088 1.100000 28.08600
12089 SI 12089 SI SI1 12089 1.100000 28.08600
12090 SI 12090 SI SI1 12090 1.100000 28.08600
12091 SI 12091 SI SI1 12091 1.100000 28.08600
12092 SI 12092 SI SI1 12092 1.100000 28.08600
12093 SI 12093 SI SI1 12093 1.100000 28.08600
12094 SI 12094 SI SI1 12094 1.100000 28.08600
12095 SI 12095 SI SI1 12095 1.100000 28.08600
12096 SI 12096 SI SI1 12096 1.100000 28.08600
12097 SI 12097 SI SI1 12097 1.100000 28.08600
12098 SI 12098 SI SI1 12098 1.100000 28.08600
12099 SI 12099 SI SI1 12099 1.100000 28.08600
12100 SI 12100 SI SI1 12100 1.100000 28.08600
12101 SI 12101 SI SI1 12101 1.100000 28.08600
12102 SI 12102 SI SI1 12102 1.100000 28.08600
12103 SI 12103 SI SI1 12103 1.100000 28.08600
12104 SI 12104 SI SI1 12104 1.100000 28.08600
12105 SI 12105 SI SI1 12105 1.100000 28.08600
12106 SI 12106 SI SI1 12106 1.100000 28.08600
12107 SI 12107 SI SI1 12107 1.100000 28.08600
12108 SI 12108 SI SI1 12108 1.100000 28.08600
12109 SI 12109 SI SI1 12109 1.100000 28.08600
12110 SI 12110 SI SI1 12110 1.100000 28.08600
12111 SI 12111 SI SI1 12111 1.100000 28.08600
12112 SI 12112 SI SI1 12112 1.100000 28.08600
12113 SI 12113 SI SI1 12113 1.100000 28.08600
12114 SI 12114 SI SI1 12114 1.100000 28.08600
12115 SI 12115 SI SI1 12115 1.100000 28.08600
12116 SI 12116 SI SI1 12116 1.100000 28.08600
12117 SI 12117 SI SI1 12117 1.100000 28.08600
12118 SI 12118 SI SI1 12118 1.100000 28.08600
12119 SI 12119 SI SI1 12119 1.100000 28.08600
12120 SI 12120 SI SI1 12120 1.100000 28.08600
12121 SI 12121 SI SI1 12121 1.100000 28.08600
12122 SI 12122 SI SI1 12122 1.100000 28.08600
12123 SI 12123 SI SI1 12123 1.100000 28.08600
12124 SI 12124 SI SI1 12124 1.100000 28.08600
12125 SI 12125 SI SI1 12125 1.100000 28.08600
12126 SI 12126 SI SI1 12126 1.100000 28.08600
12127 SI 12127 SI SI1 12127 1.100000 28.08600
12128 SI 12128 SI SI1 12128 1.100000 28.08600
12129 SI 12129 SI SI1 12129 1.100000 28.08600
12130 SI 12130 SI SI1 12130 1.100000 28.08600
12131 SI 12131 SI SI1 12131 1.100000 28.08600
12132 SI 12132 SI SI1 12132 1.100000 28.08600
12133 SI 12133 SI SI1 12133 1.100000 28.08600
12134 SI 12134 SI SI1 12134 1.100000 28.08600
12135 SI 12135 SI SI1 12135 1.100000 28.08600
12136 SI 12136 SI SI1 12136 1.100000 28.08600
12137 SI 12137 SI SI1 12137 1.100000 28.08600
12138 SI 12138 SI SI1 12138 1.100000 28.08600
12139 SI 12139 SI SI1 12139 1.100000 28.08600
12140 SI 12140 SI SI1 12140 1.100000 28.08600
12141 SI 12141 SI SI1 12141 1.100000 28.08600
12142 SI 12142 SI SI1 12142 1.100000 28.08600
12143 SI 12143 SI SI1 12143 1.100000 28.08600
12144 SI 12144 SI SI1 12144 1.100000 28.08600
12145 SI 12145 SI SI1 12145 1.100000 28.08600
12146 SI 12146 SI SI1 12146 1.100000 28.08600
12147 SI 12147 SI SI1 12147 1.100000 28.08600
12148 SI 12148 SI SI1 12148 1.100000 28.08600
12149 SI 12149 SI SI1 12149 1.100000 28.08600
12150 SI 12150 SI SI1 12150 1.100000 28.08600
12151 SI 12151 SI SI1 12151 1.100000 28.08600
12152 SI 12152 SI SI1 12152 1.100000 28.08600
12153 SI 12153 SI SI1 12153 1.100000 28.08600
12154 SI 12154 SI SI1 12154 1.100000 28.08600
12155 SI 12155 SI SI1 12155 1.100000 28.08600
12156 SI 12156 SI SI1 12156 1.100000 28.08600
12157 SI 12157 SI SI1 12157 1.100000 28.08600
12158 SI 12158 SI SI1 12158 1.100000 28.08600
12159 SI 12159 SI SI1 12159 1.100000 28.08600
12160 SI 12160 SI SI1 12160 1.100000 28.08600
12161 SI 12161 SI SI1 12161 1.100000 28.08600
12162 SI 12162 SI SI1 12162 1.100000 28.08600
12163 SI 12163 SI SI1 12163 1.100000 28.08600
12164 SI 12164 SI SI1 12164 1.100000 28.08600
12165 SI 12165 SI SI1 12165 1.100000 28.08600
12166 SI 12166 SI SI1 12166 1.100000 28.08600
12167 SI 12167 SI SI1 12167 1.100000 28.08600
12168 SI 12168 SI SI1 12168 1.100000 28.08600
12169 SI 12169 SI SI1 12169 1.100000 28.08600
12170 SI 12170 SI SI1 12170 1.100000 28.08600
12171 SI 12171 SI SI1 12171 1.100000 28.08600
12172 SI 12172 SI SI1 12172 1.100000 28.08600
12173 SI 12173 SI SI1 12173 1.100000 28.08600
12174 SI 12174 SI SI1 12174 1.100000 28.08600
12175 SI 12175 SI SI1 12175 1.100000 28.08600
12176 SI 12176 SI SI1 12176 1.100000 28.08600
12177 SI 12177 SI SI1 12177 1.100000 28.08600
12178 SI 12178 SI SI1 12178 1.100000 28.08600
12179 SI 12179 SI SI1 12179 1.100000 28.08600
12180 SI 12180 SI SI1 12180 1.100000 28.08600
12181 SI 12181 SI SI1 12181 1.100000 28.08600
12182 SI 12182 SI SI1 12182 1.100000 28.08600
12183 SI 12183 SI SI1 12183 1.100000 28.08600
12184 SI 12184 SI SI1 12184 1.100000 28.08600
12185 SI 12185 SI SI1 12185 1.100000 28.08600
12186 SI 12186 SI SI1 12186 1.100000 28.08600
12187 SI 12187 SI SI1 12187 1.100000 28.08600
12188 SI 12188 SI SI1 12188 1.100000 28.08600
12189 SI 12189 SI SI1 12189 1.100000 28.08600
12190 SI 12190 SI SI1 12190 1.100000 28.08600
12191 SI 12191 SI SI1 12191 1.100000 28.08600
12192 SI 12192 SI SI1 12192 1.100000 28.08600
12193 SI 12193 SI SI1 12193 1.100000 28.08600
12194 SI 12194 SI SI1 12194 1.100000 28.08600
12195 SI 12195 SI SI1 12195 1.100000 28.08600
12196 SI 12196 SI SI1 12196 1.100000 28.08600
12197 SI 12197 SI SI1 12197 1.100000 28.08600
12198 SI 12198 SI SI1 12198 1.100000 28.08600
12199 SI 12199 SI SI1 12199 1.100000 28.08600
12200 SI 12200 SI SI1 12200 1.100000 28.08600
12201 SI 12201 SI SI1 12201 1.100000 28.08600
12202 SI 12202 SI SI1 12202 1.100000 28.08600
12203 SI 12203 SI SI1 12203 1.100000 28.08600
12204 SI 12204 SI SI1 12204 1.100000 28.08600
12205 SI 12205 SI SI1 12205 1.100000 28.08600
12206 SI 12206 SI SI1 12206 1.100000 28.08600
12207 SI 12207 SI SI1 12207 1.100000 28.08600
12208 SI 12208 SI SI1 12208 1.100000 28.08600
12209 SI 12209 SI SI1 12209 1.100000 28.08600
12210 SI 12210 SI SI1 12210 1.100000 28.08600
12211 SI 12211 SI SI1 12211 1.100000 28.08600
12212 SI 12212 SI SI1 12212 1.100000 28.08600
12213 SI 12213 SI SI1 12213 1.100000 28.08600
12214 SI 12214 SI SI1 12214 1.100000 28.08600
12215 SI 12215 SI SI1 12215 1.100000 28.08600
12216 SI 12216 SI SI1 12216 1.100000 28.08600
12217 SI 12217 SI SI1 12217 1.100000 28.08600
12218 SI 12218 SI SI1 12218 1.100000 28.08600
12219 SI 12219 SI SI1 12219 1.100000 28.08600
12220 SI 12220 SI SI1 12220 1.100000 28.08600
12221 SI 12221 SI SI1 12221 1.100000 28.08600
12222 SI 12222 SI SI1 12222 1.100000 28.08600
12223 SI 12223 SI SI1 12223 1.100000 28.08600
12224 SI 12224 SI SI1 12224 1.100000 28.08600
12225 SI 12225 SI SI1 12225 1.100000 28.08600
12226 SI 12226 SI SI1 12226 1.100000 28.08600
12227 SI 12227 SI SI1 12227 1.100000 28.08600
12228 SI 12228 SI SI1 12228 1.100000 28.08600
12229 SI 12229 SI SI1 12229 1.100000 28.08600
12230 SI 12230 SI SI1 12230 1.100000 28.08600
12231 SI 12231 SI SI1 12231 1.100000 28.08600
12232 SI 12232 SI SI1 12232 1.100000 28.08600
12233 SI 12233 SI SI1 12233 1.100000 28.08600
12234 SI 12234 SI SI1 12234 1.100000 28.08600
12235 SI 12235 SI SI1 12235 1.100000 28.08600
12236 SI 12236 SI SI1 12236 1.100000 28.08600
12237 SI 12237 SI SI1 12237 1.100000 28.08600
12238 SI 12238 SI SI1 12238 1.100000 28.08600
12239 SI 12239 SI SI1 12239 1.100000 28.08600
12240 SI 12240 SI SI1 12240 1.100000 28.08600
12241 SI 12241 SI SI1 12241 1.100000 28.08600
12242 SI 12242 SI SI1 12242 1.100000 28.08600
12243 SI 12243 SI SI1 12243 1.100000 28.08600
12244 SI 12244 SI SI1 12244 1.100000 28.08600
12245 SI 12245 SI SI1 12245 1.100000 28.08600
12246 SI 12246 SI SI1 12246 1.100000 28.08600
12247 SI 12247 SI SI1 12247 1.100000 28.08600
12248 SI 12248 SI SI1 12248 1.100000 28.08600
12249 SI 12249 SI SI1 12249 1.100000 28.08600
12250 SI 12250 SI SI1 12250 1.100000 28.08600
12251 SI 12251 SI SI1 12251 1.100000 28.08600
12252 SI 12252 SI SI1 12252 1.100000 28.08600
12253 SI 12253 SI SI1 12253 1.100000 28.08600
12254 SI 12254 SI SI1 12254 1.100000 28.08600
12255 SI 12255 SI SI1 12255 1.100000 28.08600
12256 SI 12256 SI SI1 12256 1.100000 28.08600
12257 SI 12257 SI SI1 12257 1.100000 28.08600
12258 SI 12258 SI SI1 12258 1.100000 28.08600
12259 SI 12259 SI SI1 12259 1.100000 28.08600
12260 SI 12260 SI SI1 12260 1.100000 28.08600
12261 SI 12261 SI SI1 12261 1.100000 28.08600
12262 SI 12262 SI SI1 12262 1.100000 28.08600
12263 SI 12263 SI SI1 12263 1.100000 28.08600
12264 SI 12264 SI SI1 12264 1.100000 28.08600
12265 SI 12265 SI SI1 12265 1.100000 28.08600
12266 SI 12266 SI SI1 12266 1.100000 28.08600
12267 SI 12267 SI SI1 12267 1.100000 28.08600
12268 SI 12268 SI SI1 12268 1.100000 28.08600
12269 SI 12269 SI SI1 12269 1.100000 28.08600
12270 SI 12270 SI SI1 12270 1.100000 28.08600
12271 SI 12271 SI SI1 12271 1.100000 28.08600
12272 SI 12272 SI SI1 12272 1.100000 28.08600
12273 SI 12273 SI SI1 12273 1.100000 28.08600
12274 SI 12274 SI SI1 12274 1.100000 28.08600
12275 SI 12275 SI SI1 12275 1.100000 28.08600
12276 SI 12276 SI SI1 12276 1.100000 28.08600
12277 SI 12277 SI SI1 12277 1.100000 28.08600
12278 SI 12278 SI SI1 12278 1.100000 28.08600
12279 SI 12279 SI SI1 12279 1.100000 28.08600
12280 SI 12280 SI SI1 12280 1.100000 28.08600
12281 SI 12281 SI SI1 12281 1.100000 28.08600
12282 SI 12282 SI SI1 12282 1.100000 28.08600
12283 SI 12283 SI SI1 12283 1.100000 28.08600
12284 SI 12284 SI SI1 12284 1.100000 28.08600
12285 SI 12285 SI SI1 12285 1.100000 28.08600
12286 SI 12286 SI SI1 12286 1.100000 28.08600
12287 SI 12287 SI SI1 12287 1.100000 28.08600
12288 SI 12288 SI SI1 12288 1.100000 28.08600
12289 SI 12289 SI SI1 12289 1.100000 28.08600
12290 SI 12290 SI SI1 12290 1.100000 28.08600
12291 SI 12291 SI SI1 12291 1.100000 28.08600
12292 SI 12292 SI SI1 12292 1.100000 28.08600
12293 SI 12293 SI SI1 12293 1.100000 28.08600
12294 SI 12294 SI SI1 12294 1.100000 28.08600
12295 SI 12295 SI SI1 12295 1.100000 28.08600
12296 SI 12296 SI SI1 12296 1.100000 28.08600
12297 SI 12297 SI SI1 12297 1.100000 28.08600
12298 SI 12298 SI SI1 12298 1.100000 28.08600
12299 SI 12299 SI SI1 12299 1.100000 28.08600
12300 SI 12300 SI SI1 12300 1.100000 28.08600
12301 SI 12301 SI SI1 12301 1.100000 28.08600
12302 SI 12302 SI SI1 12302 1.100000 28.08600
12303 SI 12303 SI SI1 12303 1.100000 28.08600
12304 SI 12304 SI SI1 12304 1.100000 28.08600
12305 SI 12305 SI SI1 12305 1.100000 28.08600
12306 SI 12306 SI SI1 12306 1.100000 28.08600
12307 SI 12307 SI SI1 12307 1.100000 28.08600
12308 SI 12308 SI SI1 12308 1.100000 28.08600
12309 SI 12309 SI SI1 12309 1.100000 28.08600
12310 SI 12310 SI SI1 12310 1.100000 28.08600
12311 SI 12311 SI SI1 12311 1.100000 28.08600
12312 SI 12312 SI SI1 12312 1.100000 28.08600
12313 SI 12313 SI SI1 12313 1.100000 28.08600
12314 SI 12314 SI SI1 12314 1.100000 28.08600
12315 SI 12315 SI SI1 12315 1.100000 28.08600
12316 SI 12316 SI SI1 12316 1.100000 28.08600
12317 SI 12317 SI SI1 12317 1.100000 28.08600
12318 SI 12318 SI SI1 12318 1.100000 28.08600
12319 SI 12319 SI SI1 12319 1.100000 28.08600
12320 SI 12320 SI SI1 12320 1.100000 28.08600
12321 SI 12321 SI SI1 12321 1.100000 28.08600
12322 SI 12322 SI SI1 12322 1.100000 28.08600
12323 SI 12323 SI SI1 12323 1.100000 28.08600
12324 SI 12324 SI SI1 12324 1.100000 28.08600
12325 SI 12325 SI SI1 12325 1.100000 28.08600
12326 SI 12326 SI SI1 12326 1.100000 28.08600
12327 SI 12327 SI SI1 12327 1.100000 28.08600
12328 SI 12328 SI SI1 12328 1.100000 28.08600
12329 SI 12329 SI SI1 12329 1.100000 28.08600
12330 SI 12330 SI SI1 12330 1.100000 28.08600
12331 SI 12331 SI SI1 12331 1.100000 28.08600
12332 SI 12332 SI SI1 12332 1.100000 28.08600
12333 SI 12333 SI SI1 12333 1.100000 28.08600
12334 SI 12334 SI SI1 12334 1.100000 28.08600
12335 SI 12335 SI SI1 12335 1.100000 28.08600
12336 SI 12336 SI SI1 12336 1.100000 28.08600
12337 SI 12337 SI SI1 12337 1.100000 28.08600
12338 SI 12338 SI SI1 12338 1.100000 28.08600
12339 SI 12339 SI SI1 12339 1.100000 28.08600
12340 SI 12340 SI SI1 12340 1.100000 28.08600
12341 SI 12341 SI SI1 12341 1.100000 28.08600
12342 SI 12342 SI SI1 12342 1.100000 28.08600
12343 SI 12343 SI SI1 12343 1.100000 28.08600
12344 SI 12344 SI SI1 12344 1.100000 28.08600
12345 SI 12345 SI SI1 12345 1.100000 28.08600
12346 SI 12346 SI SI1 12346 1.100000 28.08600
12347 SI 12347 SI SI1 12347 1.100000 28.08600
12348 SI 12348 SI SI1 12348 1.100000 28.08600
12349 SI 12349 SI SI1 12349 1.100000 28.08600
12350 SI 12350 SI SI1 12350 1.100000 28.08600
12351 SI 12351 SI SI1 12351 1.100000 28.08600
12352 SI 12352 SI SI1 12352 1.100000 28.08600
12353 SI 12353 SI SI1 12353 1.100000 28.08600
12354 SI 12354 SI SI1 12354 1.100000 28.08600
12355 SI 12355 SI SI1 12355 1.100000 28.08600
12356 SI 12356 SI SI1 12356 1.100000 28.08600
12357 SI 12357 SI SI1 12357 1.100000 28.08600
12358 SI 12358 SI SI1 12358 1.100000 28.08600
12359 SI 12359 SI SI1 12359 1.100000 28.08600
12360 SI 12360 SI SI1 12360 1.100000 28.08600
12361 SI 12361 SI SI1 12361 1.100000 28.08600
12362 SI 12362 SI SI1 12362 1.100000 28.08600
12363 SI 12363 SI SI1 12363 1.100000 28.08600
12364 SI 12364 SI SI1 12364 1.100000 28.08600
12365 SI 12365 SI SI1 12365 1.100000 28.08600
12366 SI 12366 SI SI1 12366 1.100000 28.08600
12367 SI 12367 SI SI1 12367 1.100000 28.08600
12368 SI 12368 SI SI1 12368 1.100000 28.08600
12369 SI 12369 SI SI1 12369 1.100000 28.08600
12370 SI 12370 SI SI1 12370 1.100000 28.08600
12371 SI 12371 SI SI1 12371 1.100000 28.08600
12372 SI 12372 SI SI1 12372 1.100000 28.08600
12373 SI 12373 SI SI1 12373 1.100000 28.08600
12374 SI 12374 SI SI1 12374 1.100000 28.08600
12375 SI 12375 SI SI1 12375 1.100000 28.08600
12376 SI 12376 SI SI1 12376 1.100000 28.08600
12377 SI 12377 SI SI1 12377 1.100000 28.08600
12378 SI 12378 SI SI1 12378 1.100000 28.08600
12379 SI 12379 SI SI1 12379 1.100000 28.08600
12380 SI 12380 SI SI1 12380 1.100000 28.08600
12381 SI 12381 SI SI1 12381 1.100000 28.08600
12382 SI 12382 SI SI1 12382 1.100000 28.08600
12383 SI 12383 SI SI1 12383 1.100000 28.08600
12384 SI 12384 SI SI1 12384 1.100000 28.08600
12385 SI 12385 SI SI1 12385 1.100000 28.08600
12386 SI 12386 SI SI1 12386 1.100000 28.08600
12387 SI 12387 SI SI1 12387 1.100000 28.08600
12388 SI 12388 SI SI1 12388 1.100000 28.08600
12389 SI 12389 SI SI1 12389 1.100000 28.08600
12390 SI 12390 SI SI1 12390 1.100000 28.08600
12391 SI 12391 SI SI1 12391 1.100000 28.08600
12392 SI 12392 SI SI1 12392 1.100000 28.08600
12393 SI 12393 SI SI1 12393 1.100000 28.08600
12394 SI 12394 SI SI1 12394 1.100000 28.08600
12395 SI 12395 SI SI1 12395 1.100000 28.08600
12396 SI 12396 SI SI1 12396 1.100000 28.08600
12397 SI 12397 SI SI1 12397 1.100000 28.08600
12398 SI 12398 SI SI1 12398 1.100000 28.08600
12399 SI 12399 SI SI1 12399 1.100000 28.08600
12400 SI 12400 SI SI1 12400 1.100000 28.08600
12401 SI 12401 SI SI1 12401 1.100000 28.08600
12402 SI 12402 SI SI1 12402 1.100000 28.08600
12403 SI 12403 SI SI1 12403 1.100000 28.08600
12404 SI 12404 SI SI1 12404 1.100000 28.08600
12405 SI 12405 SI SI1 12405 1.100000 28.08600
12406 SI 12406 SI SI1 12406 1.100000 28.08600
12407 SI 12407 SI SI1 12407 1.100000 28.08600
12408 SI 12408 SI SI1 12408 1.100000 28.08600
12409 SI 12409 SI SI1 12409 1.100000 28.08600
12410 SI 12410 SI SI1 12410 1.100000 28.08600
12411 SI 12411 SI SI1 12411 1.100000 28.08600
12412 SI 12412 SI SI1 12412 1.100000 28.08600
12413 SI 12413 SI SI1 12413 1.100000 28.08600
12414 SI 12414 SI SI1 12414 1.100000 28.08600
12415 SI 12415 SI SI1 12415 1.100000 28.08600
12416 SI 12416 SI SI1 12416 1.100000 28.08600
12417 SI 12417 SI SI1 12417 1.100000 28.08600
12418 SI 12418 SI SI1 12418 1.100000 28.08600
12419 SI 12419 SI SI1 12419 1.100000 28.08600
12420 SI 12420 SI SI1 12420 1.100000 28.08600
12421 SI 12421 SI SI1 12421 1.100000 28.08600
12422 SI 12422 SI SI1 12422 1.100000 28.08600
12423 SI 12423 SI SI1 12423 1.100000 28.08600
12424 SI 12424 SI SI1 12424 1.100000 28.08600
12425 SI 12425 SI SI1 12425 1.100000 28.08600
12426 SI 12426 SI SI1 12426 1.100000 28.08600
12427 SI 12427 SI SI1 12427 1.100000 28.08600
12428 SI 12428 SI SI1 12428 1.100000 28.08600
12429 SI 12429 SI SI1 12429 1.100000 28.08600
12430 SI 12430 SI SI1 12430 1.100000 28.08600
12431 SI 12431 SI SI1 12431 1.100000 28.08600
12432 SI 12432 SI SI1 12432 1.100000 28.08600
12433 SI 12433 SI SI1 12433 1.100000 28.08600
12434 SI 12434 SI SI1 12434 1.100000 28.08600
12435 SI 12435 SI SI1 12435 1.100000 28.08600
12436 SI 12436 SI SI1 12436 1.100000 28.08600
12437 SI 12437 SI SI1 12437 1.100000 28.08600
12438 SI 12438 SI SI1 12438 1.100000 28.08600
12439 SI 12439 SI SI1 12439 1.100000 28.08600
12440 SI 12440 SI SI1 12440 1.100000 28.08600
12441 SI 12441 SI SI1 12441 1.100000 28.08600
12442 SI 12442 SI SI1 12442 1.100000 28.08600
12443 SI 12443 SI SI1 12443 1.100000 28.08600
12444 SI 12444 SI SI1 12444 1.100000 28.08600
12445 SI 12445 SI SI1 12445 1.100000 28.08600
12446 SI 12446 SI SI1 12446 1.100000 28.08600
12447 SI 12447 SI SI1 12447 1.100000 28.08600
12448 SI 12448 SI SI1 12448 1.100000 28.08600
12449 SI 12449 SI SI1 12449 1.100000 28.08600
12450 SI 12450 SI SI1 12450 1.100000 28.08600
12451 SI 12451 SI SI1 12451 1.100000 28.08600
12452 SI 12452 SI SI1 12452 1.100000 28.08600
12453 SI 12453 SI SI1 12453 1.100000 28.08600
12454 SI 12454 SI SI1 12454 1.100000 28.08600
12455 SI 12455 SI SI1 12455 1.100000 28.08600
12456 SI 12456 SI SI1 12456 1.100000 28.08600
12457 SI 12457 SI SI1 12457 1.100000 28.08600
12458 SI 12458 SI SI1 12458 1.100000 28.08600
12459 SI 12459 SI SI1 12459 1.100000 28.08600
12460 SI 12460 SI SI1 12460 1.100000 28.08600
12461 SI 12461 SI SI1 12461 1.100000 28.08600
12462 SI 12462 SI SI1 12462 1.100000 28.08600
12463 SI 12463 SI SI1 12463 1.100000 28.08600
12464 SI 12464 SI SI1 12464 1.100000 28.08600
12465 SI 12465 SI SI1 12465 1.100000 28.08600
12466 SI 12466 SI SI1 12466 1.100000 28.08600
12467 SI 12467 SI SI1 12467 1.100000 28.08600
12468 SI 12468 SI SI1 12468 1.100000 28.08600
12469 SI 12469 SI SI1 12469 1.100000 28.08600
12470 SI 12470 SI SI1 12470 1.100000 28.08600
12471 SI 12471 SI SI1 12471 1.100000 28.08600
12472 SI 12472 SI SI1 12472 1.100000 28.08600
12473 SI 12473 SI SI1 12473 1.100000 28.08600
12474 SI 12474 SI SI1 12474 1.100000 28.08600
12475 SI 12475 SI SI1 12475 1.100000 28.08600
12476 SI 12476 SI SI1 12476 1.100000 28.08600
12477 SI 12477 SI SI1 12477 1.100000 28.08600
12478 SI 12478 SI SI1 12478 1.100000 28.08600
12479 SI 12479 SI SI1 12479 1.100000 28.08600
12480 SI 12480 SI SI1 12480 1.100000 28.08600
12481 SI 12481 SI SI1 12481 1.100000 28.08600
12482 SI 12482 SI SI1 12482 1.100000 28.08600
12483 SI 12483 SI SI1 12483 1.100000 28.08600
12484 SI 12484 SI SI1 12484 1.100000 28.08600
12485 SI 12485 SI SI1 12485 1.100000 28.08600
12486 SI 12486 SI SI1 12486 1.100000 28.08600
12487 SI 12487 SI SI1 12487 1.100000 28.08600
12488 SI 12488 SI SI1 12488 1.100000 28.08600
12489 SI 12489 SI SI1 12489 1.100000 28.08600
12490 SI 12490 SI SI1 12490 1.100000 28.08600
12491 SI 12491 SI SI1 12491 1.100000 28.08600
12492 SI 12492 SI SI1 12492 1.100000 28.08600
12493 SI 12493 SI SI1 12493 1.100000 28.08600
12494 SI 12494 SI SI1 12494 1.100000 28.08600
12495 SI 12495 SI SI1 12495 1.100000 28.08600
12496 SI 12496 SI SI1 12496 1.100000 28.08600
12497 SI 12497 SI SI1 12497 1.100000 28.08600
12498 SI 12498 SI SI1 12498 1.100000 28.08600
12499 SI 12499 SI SI1 12499 1.100000 28.08600
12500 SI 12500 SI SI1 12500 1.100000 28.08600
12501 SI 12501 SI SI1 12501 1.100000 28.08600
12502 SI 12502 SI SI1 12502 1.100000 28.08600
12503 SI 12503 SI SI1 12503 1.100000 28.08600
12504 SI 12504 SI SI1 12504 1.100000 28.08600
12505 SI 12505 SI SI1 12505 1.100000 28.08600
12506 SI 12506 SI SI1 12506 1.100000 28.08600
12507 SI 12507 SI SI1 12507 1.100000 28.08600
12508 SI 12508 SI SI1 12508 1.100000 28.08600
12509 SI 12509 SI SI1 12509 1.100000 28.08600
12510 SI 12510 SI SI1 12510 1.100000 28.08600
12511 SI 12511 SI SI1 12511 1.100000 28.08600
12512 SI 12512 SI SI1 12512 1.100000 28.08600
12513 SI 12513 SI SI1 12513 1.100000 28.08600
12514 SI 12514 SI SI1 12514 1.100000 28.08600
12515 SI 12515 SI SI1 12515 1.100000 28.08600
12516 SI 12516 SI SI1 12516 1.100000 28.08600
12517 SI 12517 SI SI1 12517 1.100000 28.08600
12518 SI 12518 SI SI1 12518 1.100000 28.08600
12519 SI 12519 SI SI1 12519 1.100000 28.08600
12520 SI 12520 SI SI1 12520 1.100000 28.08600
12521 SI 12521 SI SI1 12521 1.100000 28.08600
12522 SI 12522 SI SI1 12522 1.100000 28.08600
12523 SI 12523 SI SI1 12523 1.100000 28.08600
12524 SI 12524 SI SI1 12524 1.100000 28.08600
12525 SI 12525 SI SI1 12525 1.100000 28.08600
12526 SI 12526 SI SI1 12526 1.100000 28.08600
12527 SI 12527 SI SI1 12527 1.100000 28.08600
12528 SI 12528 SI SI1 12528 1.100000 28.08600
12529 SI 12529 SI SI1 12529 1.100000 28.08600
12530 SI 12530 SI SI1 12530 1.100000 28.08600
12531 SI 12531 SI SI1 12531 1.100000 28.08600
12532 SI 12532 SI SI1 12532 1.100000 28.08600
12533 SI 12533 SI SI1 12533 1.100000 28.08600
12534 SI 12534 SI SI1 12534 1.100000 28.08600
12535 SI 12535 SI SI1 12535 1.100000 28.08600
12536 SI 12536 SI SI1 12536 1.100000 28.08600
12537 SI 12537 SI SI1 12537 1.100000 28.08600
12538 SI 12538 SI SI1 12538 1.100000 28.08600
12539 SI 12539 SI SI1 12539 1.100000 28.08600
12540 SI 12540 SI SI1 12540 1.100000 28.08600
12541 SI 12541 SI SI1 12541 1.100000 28.08600
12542 SI 12542 SI SI1 12542 1.100000 28.08600
12543 SI 12543 SI SI1 12543 1.100000 28.08600
12544 SI 12544 SI SI1 12544 1.100000 28.08600
12545 SI 12545 SI SI1 12545 1.100000 28.08600
12546 SI 12546 SI SI1 12546 1.100000 28.08600
12547 SI 12547 SI SI1 12547 1.100000 28.08600
12548 SI 12548 SI SI1 12548 1.100000 28.08600
12549 SI 12549 SI SI1 12549 1.100000 28.08600
12550 SI 12550 SI SI1 12550 1.100000 28.08600
12551 SI 12551 SI SI1 12551 1.100000 28.08600
12552 SI 12552 SI SI1 12552 1.100000 28.08600
12553 SI 12553 SI SI1 12553 1.100000 28.08600
12554 SI 12554 SI SI1 12554 1.100000 28.08600
12555 SI 12555 SI SI1 12555 1.100000 28.08600
12556 SI 12556 SI SI1 12556 1.100000 28.08600
12557 SI 12557 SI SI1 12557 1.100000 28.08600
12558 SI 12558 SI SI1 12558 1.100000 28.08600
12559 SI 12559 SI SI1 12559 1.100000 28.08600
12560 SI 12560 SI SI1 12560 1.100000 28.08600
12561 SI 12561 SI SI1 12561 1.100000 28.08600
12562 SI 12562 SI SI1 12562 1.100000 28.08600
12563 SI 12563 SI SI1 12563 1.100000 28.08600
12564 SI 12564 SI SI1 12564 1.100000 28.08600
12565 SI 12565 SI SI1 12565 1.100000 28.08600
12566 SI 12566 SI SI1 12566 1.100000 28.08600
12567 SI 12567 SI SI1 12567 1.100000 28.08600
12568 SI 12568 SI SI1 12568 1.100000 28.08600
12569 SI 12569 SI SI1 12569 1.100000 28.08600
12570 SI 12570 SI SI1 12570 1.100000 28.08600
12571 SI 12571 SI SI1 12571 1.100000 28.08600
12572 SI 12572 SI SI1 12572 1.100000 28.08600
12573 SI 12573 SI SI1 12573 1.100000 28.08600
12574 SI 12574 SI SI1 12574 1.100000 28.08600
12575 SI 12575 SI SI1 12575 1.100000 28.08600
12576 SI 12576 SI SI1 12576 1.100000 28.08600
12577 SI 12577 SI SI1 12577 1.100000 28.08600
12578 SI 12578 SI SI1 12578 1.100000 28.08600
12579 SI 12579 SI SI1 12579 1.100000 28.08600
12580 SI 12580 SI SI1 12580 1.100000 28.08600
12581 SI 12581 SI SI1 12581 1.100000 28.08600
12582 SI 12582 SI SI1 12582 1.100000 28.08600
12583 SI 12583 SI SI1 12583 1.100000 28.08600
12584 SI 12584 SI SI1 12584 1.100000 28.08600
12585 SI 12585 SI SI1 12585 1.100000 28.08600
12586 SI 12586 SI SI1 12586 1.100000 28.08600
12587 SI 12587 SI SI1 12587 1.100000 28.08600
12588 SI 12588 SI SI1 12588 1.100000 28.08600
12589 SI 12589 SI SI1 12589 1.100000 28.08600
12590 SI 12590 SI SI1 12590 1.100000 28.08600
12591 SI 12591 SI SI1 12591 1.100000 28.08600
12592 SI 12592 SI SI1 12592 1.100000 28.08600
12593 SI 12593 SI SI1 12593 1.100000 28.08600
12594 SI 12594 SI SI1 12594 1.100000 28.08600
12595 SI 12595 SI SI1 12595 1.100000 28.08600
12596 SI 12596 SI SI1 12596 1.100000 28.08600
12597 SI 12597 SI SI1 12597 1.100000 28.08600
12598 SI 12598 SI SI1 12598 1.100000 28.08600
12599 SI 12599 SI SI1 12599 1.100000 28.08600
12600 SI 12600 SI SI1 12600 1.100000 28.08600
12601 SI 12601 SI SI1 12601 1.100000 28.08600
12602 SI 12602 SI SI1 12602 1.100000 28.08600
12603 SI 12603 SI SI1 12603 1.100000 28.08600
12604 SI 12604 SI SI1 12604 1.100000 28.08600
12605 SI 12605 SI SI1 12605 1.100000 28.08600
12606 SI 12606 SI SI1 12606 1.100000 28.08600
12607 SI 12607 SI SI1 12607 1.100000 28.08600
12608 SI 12608 SI SI1 12608 1.100000 28.08600
12609 SI 12609 SI SI1 12609 1.100000 28.08600
12610 SI 12610 SI SI1 12610 1.100000 28.08600
12611 SI 12611 SI SI1 12611 1.100000 28.08600
12612 SI 12612 SI SI1 12612 1.100000 28.08600
12613 SI 12613 SI SI1 12613 1.100000 28.08600
12614 SI 12614 SI SI1 12614 1.100000 28.08600
12615 SI 12615 SI SI1 12615 1.100000 28.08600
12616 SI 12616 SI SI1 12616 1.100000 28.08600
12617 SI 12617 SI SI1 12617 1.100000 28.08600
12618 SI 12618 SI SI1 12618 1.100000 28.08600
12619 SI 12619 SI SI1 12619 1.100000 28.08600
12620 SI 12620 SI SI1 12620 1.100000 28.08600
12621 SI 12621 SI SI1 12621 1.100000 28.08600
12622 SI 12622 SI SI1 12622 1.100000 28.08600
12623 SI 12623 SI SI1 12623 1.100000 28.08600
12624 SI 12624 SI SI1 12624 1.100000 28.08600
12625 SI 12625 SI SI1 12625 1.100000 28.08600
12626 SI 12626 SI SI1 12626 1.100000 28.08600
12627 SI 12627 SI SI1 12627 1.100000 28.08600
12628 SI 12628 SI SI1 12628 1.100000 28.08600
12629 SI 12629 SI SI1 12629 1.100000 28.08600
12630 SI 12630 SI SI1 12630 1.100000 28.08600
12631 SI 12631 SI SI1 12631 1.100000 28.08600
12632 SI 12632 SI SI1 12632 1.100000 28.08600
12633 SI 12633 SI SI1 12633 1.100000 28.08600
12634 SI 12634 SI SI1 12634 1.100000 28.08600
12635 SI 12635 SI SI1 12635 1.100000 28.08600
12636 SI 12636 SI SI1 12636 1.100000 28.08600
12637 SI 12637 SI SI1 12637 1.100000 28.08600
12638 SI 12638 SI SI1 12638 1.100000 28.08600
12639 SI 12639 SI SI1 12639 1.100000 28.08600
12640 SI 12640 SI SI1 12640 1.100000 28.08600
12641 SI 12641 SI SI1 12641 1.100000 28.08600
12642 SI 12642 SI SI1 12642 1.100000 28.08600
12643 SI 12643 SI SI1 12643 1.100000 28.08600
12644 SI 12644 SI SI1 12644 1.100000 28.08600
12645 SI 12645 SI SI1 12645 1.100000 28.08600
12646 SI 12646 SI SI1 12646 1.100000 28.08600
12647 SI 12647 SI SI1 12647 1.100000 28.08600
12648 SI 12648 SI SI1 12648 1.100000 28.08600
12649 SI 12649 SI SI1 12649 1.100000 28.08600
12650 SI 12650 SI SI1 12650 1.100000 28.08600
12651 SI 12651 SI SI1 12651 1.100000 28.08600
12652 SI 12652 SI SI1 12652 1.100000 28.08600
12653 SI 12653 SI SI1 12653 1.100000 28.08600
12654 SI 12654 SI SI1 12654 1.100000 28.08600
12655 SI 12655 SI SI1 12655 1.100000 28.08600
12656 SI 12656 SI SI1 12656 1.100000 28.08600
12657 SI 12657 SI SI1 12657 1.100000 28.08600
12658 SI 12658 SI SI1 12658 1.100000 28.08600
12659 SI 12659 SI SI1 12659 1.100000 28.08600
12660 SI 12660 SI SI1 12660 1.100000 28.08600
12661 SI 12661 SI SI1 12661 1.100000 28.08600
12662 SI 12662 SI SI1 12662 1.100000 28.08600
12663 SI 12663 SI SI1 12663 1.100000 28.08600
12664 SI 12664 SI SI1 12664 1.100000 28.08600
12665 SI 12665 SI SI1 12665 1.100000 28.08600
12666 SI 12666 SI SI1 12666 1.100000 28.08600
12667 SI 12667 SI SI1 12667 1.100000 28.08600
12668 SI 12668 SI SI1 12668 1.100000 28.08600
12669 SI 12669 SI SI1 12669 1.100000 28.08600
12670 SI 12670 SI SI1 12670 1.100000 28.08600
12671 SI 12671 SI SI1 12671 1.100000 28.08600
12672 SI 12672 SI SI1 12672 1.100000 28.08600
12673 SI 12673 SI SI1 12673 1.100000 28.08600
12674 SI 12674 SI SI1 12674 1.100000 28.08600
12675 SI 12675 SI SI1 12675 1.100000 28.08600
12676 SI 12676 SI SI1 12676 1.100000 28.08600
12677 SI 12677 SI SI1 12677 1.100000 28.08600
12678 SI 12678 SI SI1 12678 1.100000 28.08600
12679 SI 12679 SI SI1 12679 1.100000 28.08600
12680 SI 12680 SI SI1 12680 1.100000 28.08600
12681 SI 12681 SI SI1 12681 1.100000 28.08600
12682 SI 12682 SI SI1 12682 1.100000 28.08600
12683 SI 12683 SI SI1 12683 1.100000 28.08600
12684 SI 12684 SI SI1 12684 1.100000 28.08600
12685 SI 12685 SI SI1 12685 1.100000 28.08600
12686 SI 12686 SI SI1 12686 1.100000 28.08600
12687 SI 12687 SI SI1 12687 1.100000 28.08600
12688 SI 12688 SI SI1 12688 1.100000 28.08600
12689 SI 12689 SI SI1 12689 1.100000 28.08600
12690 SI 12690 SI SI1 12690 1.100000 28.08600
12691 SI 12691 SI SI1 12691 1.100000 28.08600
12692 SI 12692 SI SI1 12692 1.100000 28.08600
12693 SI 12693 SI SI1 12693 1.100000 28.08600
12694 SI 12694 SI SI1 12694 1.100000 28.08600
12695 SI 12695 SI SI1 12695 1.100000 28.08600
12696 SI 12696 SI SI1 12696 1.100000 28.08600
12697 SI 12697 SI SI1 12697 1.100000 28.08600
12698 SI 12698 SI SI1 12698 1.100000 28.08600
12699 SI 12699 SI SI1 12699 1.100000 28.08600
12700 SI 12700 SI SI1 12700 1.100000 28.08600
12701 SI 12701 SI SI1 12701 1.100000 28.08600
12702 SI 12702 SI SI1 12702 1.100000 28.08600
12703 SI 12703 SI SI1 12703 1.100000 28.08600
12704 SI 12704 SI SI1 12704 1.100000 28.08600
12705 SI 12705 SI SI1 12705 1.100000 28.08600
12706 SI 12706 SI SI1 12706 1.100000 28.08600
12707 SI 12707 SI SI1 12707 1.100000 28.08600
12708 SI 12708 SI SI1 12708 1.100000 28.08600
12709 SI 12709 SI SI1 12709 1.100000 28.08600
12710 SI 12710 SI SI1 12710 1.100000 28.08600
12711 SI 12711 SI SI1 12711 1.100000 28.08600
12712 SI 12712 SI SI1 12712 1.100000 28.08600
12713 SI 12713 SI SI1 12713 1.100000 28.08600
12714 SI 12714 SI SI1 12714 1.100000 28.08600
12715 SI 12715 SI SI1 12715 1.100000 28.08600
12716 SI 12716 SI SI1 12716 1.100000 28.08600
12717 SI 12717 SI SI1 12717 1.100000 28.08600
12718 SI 12718 SI SI1 12718 1.100000 28.08600
12719 SI 12719 SI SI1 12719 1.100000 28.08600
12720 SI 12720 SI SI1 12720 1.100000 28.08600
12721 SI 12721 SI SI1 12721 1.100000 28.08600
12722 SI 12722 SI SI1 12722 1.100000 28.08600
12723 SI 12723 SI SI1 12723 1.100000 28.08600
12724 SI 12724 SI SI1 12724 1.100000 28.08600
12725 SI 12725 SI SI1 12725 1.100000 28.08600
12726 SI 12726 SI SI1 12726 1.100000 28.08600
12727 SI 12727 SI SI1 12727 1.100000 28.08600
12728 SI 12728 SI SI1 12728 1.100000 28.08600
12729 SI 12729 SI SI1 12729 1.100000 28.08600
12730 SI 12730 SI SI1 12730 1.100000 28.08600
12731 SI 12731 SI SI1 12731 1.100000 28.08600
12732 SI 12732 SI SI1 12732 1.100000 28.08600
12733 SI 12733 SI SI1 12733 1.100000 28.08600
12734 SI 12734 SI SI1 12734 1.100000 28.08600
12735 SI 12735 SI SI1 12735 1.100000 28.08600
12736 SI 12736 SI SI1 12736 1.100000 28.08600
12737 SI 12737 SI SI1 12737 1.100000 28.08600
12738 SI 12738 SI SI1 12738 1.100000 28.08600
12739 SI 12739 SI SI1 12739 1.100000 28.08600
12740 SI 12740 SI SI1 12740 1.100000 28.08600
12741 SI 12741 SI SI1 12741 1.100000 28.08600
12742 SI 12742 SI SI1 12742 1.100000 28.08600
12743 SI 12743 SI SI1 12743 1.100000 28.08600
12744 SI 12744 SI SI1 12744 1.100000 28.08600
12745 SI 12745 SI SI1 12745 1.100000 28.08600
12746 SI 12746 SI SI1 12746 1.100000 28.08600
12747 SI 12747 SI SI1 12747 1.100000 28.08600
12748 SI 12748 SI SI1 12748 1.100000 28.08600
12749 SI 12749 SI SI1 12749 1.100000 28.08600
12750 SI 12750 SI SI1 12750 1.100000 28.08600
12751 SI 12751 SI SI1 12751 1.100000 28.08600
12752 SI 12752 SI SI1 12752 1.100000 28.08600
12753 SI 12753 SI SI1 12753 1.100000 28.08600
12754 SI 12754 SI SI1 12754 1.100000 28.08600
12755 SI 12755 SI SI1 12755 1.100000 28.08600
12756 SI 12756 SI SI1 12756 1.100000 28.08600
12757 SI 12757 SI SI1 12757 1.100000 28.08600
12758 SI 12758 SI SI1 12758 1.100000 28.08600
12759 SI 12759 SI SI1 12759 1.100000 28.08600
12760 SI 12760 SI SI1 12760 1.100000 28.08600
12761 SI 12761 SI SI1 12761 1.100000 28.08600
12762 SI 12762 SI SI1 12762 1.100000 28.08600
12763 SI 12763 SI SI1 12763 1.100000 28.08600
12764 SI 12764 SI SI1 12764 1.100000 28.08600
12765 SI 12765 SI SI1 12765 1.100000 28.08600
12766 SI 12766 SI SI1 12766 1.100000 28.08600
12767 SI 12767 SI SI1 12767 1.100000 28.08600
12768 SI 12768 SI SI1 12768 1.100000 28.08600
12769 SI 12769 SI SI1 12769 1.100000 28.08600
12770 SI 12770 SI SI1 12770 1.100000 28.08600
12771 SI 12771 SI SI1 12771 1.100000 28.08600
12772 SI 12772 SI SI1 12772 1.100000 28.08600
12773 SI 12773 SI SI1 12773 1.100000 28.08600
12774 SI 12774 SI SI1 12774 1.100000 28.08600
12775 SI 12775 SI SI1 12775 1.100000 28.08600
12776 SI 12776 SI SI1 12776 1.100000 28.08600
12777 SI 12777 SI SI1 12777 1.100000 28.08600
12778 SI 12778 SI SI1 12778 1.100000 28.08600
12779 SI 12779 SI SI1 12779 1.100000 28.08600
12780 SI 12780 SI SI1 12780 1.100000 28.08600
12781 SI 12781 SI SI1 12781 1.100000 28.08600
12782 SI 12782 SI SI1 12782 1.100000 28.08600
12783 SI 12783 SI SI1 12783 1.100000 28.08600
12784 SI 12784 SI SI1 12784 1.100000 28.08600
12785 SI 12785 SI SI1 12785 1.100000 28.08600
12786 SI 12786 SI SI1 12786 1.100000 28.08600
12787 SI 12787 SI SI1 12787 1.100000 28.08600
12788 SI 12788 SI SI1 12788 1.100000 28.08600
12789 SI 12789 SI SI1 12789 1.100000 28.08600
12790 SI 12790 SI SI1 12790 1.100000 28.08600
12791 SI 12791 SI SI1 12791 1.100000 28.08600
12792 SI 12792 SI SI1 12792 1.100000 28.08600
12793 SI 12793 SI SI1 12793 1.100000 28.08600
12794 SI 12794 SI SI1 12794 1.100000 28.08600
12795 SI 12795 SI SI1 12795 1.100000 28.08600
12796 SI 12796 SI SI1 12796 1.100000 28.08600
12797 SI 12797 SI SI1 12797 1.100000 28.08600
12798 SI 12798 SI SI1 12798 1.100000 28.08600
12799 SI 12799 SI SI1 12799 1.100000 28.08600
12800 SI 12800 SI SI1 12800 1.100000 28.08600
12801 SI 12801 SI SI1 12801 1.100000 28.08600
12802 SI 12802 SI SI1 12802 1.100000 28.08600
12803 SI 12803 SI SI1 12803 1.100000 28.08600
12804 SI 12804 SI SI1 12804 1.100000 28.08600
12805 SI 12805 SI SI1 12805 1.100000 28.08600
12806 SI 12806 SI SI1 12806 1.100000 28.08600
12807 SI 12807 SI SI1 12807 1.100000 28.08600
12808 SI 12808 SI SI1 12808 1.100000 28.08600
12809 SI 12809 SI SI1 12809 1.100000 28.08600
12810 SI 12810 SI SI1 12810 1.100000 28.08600
12811 SI 12811 SI SI1 12811 1.100000 28.08600
12812 SI 12812 SI SI1 12812 1.100000 28.08600
12813 SI 12813 SI SI1 12813 1.100000 28.08600
12814 SI 12814 SI SI1 12814 1.100000 28.08600
12815 SI 12815 SI SI1 12815 1.100000 28.08600
12816 SI 12816 SI SI1 12816 1.100000 28.08600
12817 SI 12817 SI SI1 12817 1.100000 28.08600
12818 SI 12818 SI SI1 12818 1.100000 28.08600
12819 SI 12819 SI SI1 12819 1.100000 28.08600
12820 SI 12820 SI SI1 12820 1.100000 28.08600
12821 SI 12821 SI SI1 12821 1.100000 28.08600
12822 SI 12822 SI SI1 12822 1.100000 28.08600
12823 SI 12823 SI SI1 12823 1.100000 28.08600
12824 SI 12824 SI SI1 12824 1.100000 28.08600
12825 SI 12825 SI SI1 12825 1.100000 28.08600
12826 SI 12826 SI SI1 12826 1.100000 28.08600
12827 SI 12827 SI SI1 12827 1.100000 28.08600
12828 SI 12828 SI SI1 12828 1.100000 28.08600
12829 SI 12829 SI SI1 12829 1.100000 28.08600
12830 SI 12830 SI SI1 12830 1.100000 28.08600
12831 SI 12831 SI SI1 12831 1.100000 28.08600
12832 SI 12832 SI SI1 12832 1.100000 28.08600
12833 SI 12833 SI SI1 12833 1.100000 28.08600
12834 SI 12834 SI SI1 12834 1.100000 28.08600
12835 SI 12835 SI SI1 12835 1.100000 28.08600
12836 SI 12836 SI SI1 12836 1.100000 28.08600
12837 SI 12837 SI SI1 12837 1.100000 28.08600
12838 SI 12838 SI SI1 12838 1.100000 28.08600
12839 SI 12839 SI SI1 12839 1.100000 28.08600
12840 SI 12840 SI SI1 12840 1.100000 28.08600
12841 SI 12841 SI SI1 12841 1.100000 28.08600
12842 SI 12842 SI SI1 12842 1.100000 28.08600
12843 SI 12843 SI SI1 12843 1.100000 28.08600
12844 SI 12844 SI SI1 12844 1.100000 28.08600
12845 SI 12845 SI SI1 12845 1.100000 28.08600
12846 SI 12846 SI SI1 12846 1.100000 28.08600
12847 SI 12847 SI SI1 12847 1.100000 28.08600
12848 SI 12848 SI SI1 12848 1.100000 28.08600
12849 SI 12849 SI SI1 12849 1.100000 28.08600
12850 SI 12850 SI SI1 12850 1.100000 28.08600
12851 SI 12851 SI SI1 12851 1.100000 28.08600
12852 SI 12852 SI SI1 12852 1.100000 28.08600
12853 SI 12853 SI SI1 12853 1.100000 28.08600
12854 SI 12854 SI SI1 12854 1.100000 28.08600
12855 SI 12855 SI SI1 12855 1.100000 28.08600
12856 SI 12856 SI SI1 12856 1.100000 28.08600
12857 SI 12857 SI SI1 12857 1.100000 28.08600
12858 SI 12858 SI SI1 12858 1.100000 28.08600
12859 SI 12859 SI SI1 12859 1.100000 28.08600
12860 SI 12860 SI SI1 12860 1.100000 28.08600
12861 SI 12861 SI SI1 12861 1.100000 28.08600
12862 SI 12862 SI SI1 12862 1.100000 28.08600
12863 SI 12863 SI SI1 12863 1.100000 28.08600
12864 SI 12864 SI SI1 12864 1.100000 28.08600
12865 SI 12865 SI SI1 12865 1.100000 28.08600
12866 SI 12866 SI SI1 12866 1.100000 28.08600
12867 SI 12867 SI SI1 12867 1.100000 28.08600
12868 SI 12868 SI SI1 12868 1.100000 28.08600
12869 SI 12869 SI SI1 12869 1.100000 28.08600
12870 SI 12870 SI SI1 12870 1.100000 28.08600
12871 SI 12871 SI SI1 12871 1.100000 28.08600
12872 SI 12872 SI SI1 12872 1.100000 28.08600
12873 SI 12873 SI SI1 12873 1.100000 28.08600
12874 SI 12874 SI SI1 12874 1.100000 28.08600
12875 SI 12875 SI SI1 12875 1.100000 28.08600
12876 SI 12876 SI SI1 12876 1.100000 28.08600
12877 SI 12877 SI SI1 12877 1.100000 28.08600
12878 SI 12878 SI SI1 12878 1.100000 28.08600
12879 SI 12879 SI SI1 12879 1.100000 28.08600
12880 SI 12880 SI SI1 12880 1.100000 28.08600
12881 SI 12881 SI SI1 12881 1.100000 28.08600
12882 SI 12882 SI SI1 12882 1.100000 28.08600
12883 SI 12883 SI SI1 12883 1.100000 28.08600
12884 SI 12884 SI SI1 12884 1.100000 28.08600
12885 SI 12885 SI SI1 12885 1.100000 28.08600
12886 SI 12886 SI SI1 12886 1.100000 28.08600
12887 SI 12887 SI SI1 12887 1.100000 28.08600
12888 SI 12888 SI SI1 12888 1.100000 28.08600
12889 SI 12889 SI SI1 12889 1.100000 28.08600
12890 SI 12890 SI SI1 12890 1.100000 28.08600
12891 SI 12891 SI SI1 12891 1.100000 28.08600
12892 SI 12892 SI SI1 12892 1.100000 28.08600
12893 SI 12893 SI SI1 12893 1.100000 28.08600
12894 SI 12894 SI SI1 12894 1.100000 28.08600
12895 SI 12895 SI SI1 12895 1.100000 28.08600
12896 SI 12896 SI SI1 12896 1.100000 28.08600
12897 SI 12897 SI SI1 12897 1.100000 28.08600
12898 SI 12898 SI SI1 12898 1.100000 28.08600
12899 SI 12899 SI SI1 12899 1.100000 28.08600
12900 SI 12900 SI SI1 12900 1.100000 28.08600
12901 SI 12901 SI SI1 12901 1.100000 28.08600
12902 SI 12902 SI SI1 12902 1.100000 28.08600
12903 SI 12903 SI SI1 12903 1.100000 28.08600
12904 SI 12904 SI SI1 12904 1.100000 28.08600
12905 SI 12905 SI SI1 12905 1.100000 28.08600
12906 SI 12906 SI SI1 12906 1.100000 28.08600
12907 SI 12907 SI SI1 12907 1.100000 28.08600
12908 SI 12908 SI SI1 12908 1.100000 28.08600
12909 SI 12909 SI SI1 12909 1.100000 28.08600
12910 SI 12910 SI SI1 12910 1.100000 28.08600
12911 SI 12911 SI SI1 12911 1.100000 28.08600
12912 SI 12912 SI SI1 12912 1.100000 28.08600
12913 SI 12913 SI SI1 12913 1.100000 28.08600
12914 SI 12914 SI SI1 12914 1.100000 28.08600
12915 SI 12915 SI SI1 12915 1.100000 28.08600
12916 SI 12916 SI SI1 12916 1.100000 28.08600
12917 SI 12917 SI SI1 12917 1.100000 28.08600
12918 SI 12918 SI SI1 12918 1.100000 28.08600
12919 SI 12919 SI SI1 12919 1.100000 28.08600
12920 SI 12920 SI SI1 12920 1.100000 28.08600
12921 SI 12921 SI SI1 12921 1.100000 28.08600
12922 SI 12922 SI SI1 12922 1.100000 28.08600
12923 SI 12923 SI SI1 12923 1.100000 28.08600
12924 SI 12924 SI SI1 12924 1.100000 28.08600
12925 SI 12925 SI SI1 12925 1.100000 28.08600
12926 SI 12926 SI SI1 12926 1.100000 28.08600
12927 SI 12927 SI SI1 12927 1.100000 28.08600
12928 SI 12928 SI SI1 12928 1.100000 28.08600
12929 SI 12929 SI SI1 12929 1.100000 28.08600
12930 SI 12930 SI SI1 12930 1.100000 28.08600
12931 SI 12931 SI SI1 12931 1.100000 28.08600
12932 SI 12932 SI SI1 12932 1.100000 28.08600
12933 SI 12933 SI SI1 12933 1.100000 28.08600
12934 SI 12934 SI SI1 12934 1.100000 28.08600
12935 SI 12935 SI SI1 12935 1.100000 28.08600
12936 SI 12936 SI SI1 12936 1.100000 28.08600
12937 SI 12937 SI SI1 12937 1.100000 28.08600
12938 SI 12938 SI SI1 12938 1.100000 28.08600
12939 SI 12939 SI SI1 12939 1.100000 28.08600
12940 SI 12940 SI SI1 12940 1.100000 28.08600
12941 SI 12941 SI SI1 12941 1.100000 28.08600
12942 SI 12942 SI SI1 12942 1.100000 28.08600
12943 SI 12943 SI SI1 12943 1.100000 28.08600
12944 SI 12944 SI SI1 12944 1.100000 28.08600
12945 SI 12945 SI SI1 12945 1.100000 28.08600
12946 SI 12946 SI SI1 12946 1.100000 28.08600
12947 SI 12947 SI SI1 12947 1.100000 28.08600
12948 SI 12948 SI SI1 12948 1.100000 28.08600
12949 SI 12949 SI SI1 12949 1.100000 28.08600
12950 SI 12950 SI SI1 12950 1.100000 28.08600
12951 SI 12951 SI SI1 12951 1.100000 28.08600
12952 SI 12952 SI SI1 12952 1.100000 28.08600
12953 SI 12953 SI SI1 12953 1.100000 28.08600
12954 SI 12954 SI SI1 12954 1.100000 28.08600
12955 SI 12955 SI SI1 12955 1.100000 28.08600
12956 SI 12956 SI SI1 12956 1.100000 28.08600
12957 SI 12957 SI SI1 12957 1.100000 28.08600
12958 SI 12958 SI SI1 12958 1.100000 28.08600
12959 SI 12959 SI SI1 12959 1.100000 28.08600
12960 SI 12960 SI SI1 12960 1.100000 28.08600
12961 SI 12961 SI SI1 12961 1.100000 28.08600
12962 SI 12962 SI SI1 12962 1.100000 28.08600
12963 SI 12963 SI SI1 12963 1.100000 28.08600
12964 SI 12964 SI SI1 12964 1.100000 28.08600
12965 SI 12965 SI SI1 12965 1.100000 28.08600
12966 SI 12966 SI SI1 12966 1.100000 28.08600
12967 SI 12967 SI SI1 12967 1.100000 28.08600
12968 SI 12968 SI SI1 12968 1.100000 28.08600
12969 SI 12969 SI SI1 12969 1.100000 28.08600
12970 SI 12970 SI SI1 12970 1.100000 28.08600
12971 SI 12971 SI SI1 12971 1.100000 28.08600
12972 SI 12972 SI SI1 12972 1.100000 28.08600
12973 SI 12973 SI SI1 12973 1.100000 28.08600
12974 SI 12974 SI SI1 12974 1.100000 28.08600
12975 SI 12975 SI SI1 12975 1.100000 28.08600
12976 SI 12976 SI SI1 12976 1.100000 28.08600
12977 SI 12977 SI SI1 12977 1.100000 28.08600
12978 SI 12978 SI SI1 12978 1.100000 28.08600
12979 SI 12979 SI SI1 12979 1.100000 28.08600
12980 SI 12980 SI SI1 12980 1.100000 28.08600
12981 SI 12981 SI SI1 12981 1.100000 28.08600
12982 SI 12982 SI SI1 12982 1.100000 28.08600
12983 SI 12983 SI SI1 12983 1.100000 28.08600
12984 SI 12984 SI SI1 12984 1.100000 28.08600
12985 SI 12985 SI SI1 12985 1.100000 28.08600
12986 SI 12986 SI SI1 12986 1.100000 28.08600
12987 SI 12987 SI SI1 12987 1.100000 28.08600
12988 SI 12988 SI SI1 12988 1.100000 28.08600
12989 SI 12989 SI SI1 12989 1.100000 28.08600
12990 SI 12990 SI SI1 12990 1.100000 28.08600
12991 SI 12991 SI SI1 12991 1.100000 28.08600
12992 SI 12992 SI SI1 12992 1.100000 28.08600
12993 SI 12993 SI SI1 12993 1.100000 28.08600
12994 SI 12994 SI SI1 12994 1.100000 28.08600
12995 SI 12995 SI SI1 12995 1.100000 28.08600
12996 SI 12996 SI SI1 12996 1.100000 28.08600
12997 SI 12997 SI SI1 12997 1.100000 28.08600
12998 SI 12998 SI SI1 12998 1.100000 28.08600
12999 SI 12999 SI SI1 12999 1.100000 28.08600
13000 SI 13000 SI SI1 13000 1.100000 28.08600
13001 SI 13001 SI SI1 13001 1.100000 28.08600
13002 SI 13002 SI SI1 13002 1.100000 28.08600
13003 SI 13003 SI SI1 13003 1.100000 28.08600
13004 SI 13004 SI SI1 13004 1.100000 28.08600
13005 SI 13005 SI SI1 13005 1.100000 28.08600
13006 SI 13006 SI SI1 13006 1.100000 28.08600
13007 SI 13007 SI SI1 13007 1.100000 28.08600
13008 SI 13008 SI SI1 13008 1.100000 28.08600
13009 SI 13009 SI SI1 13009 1.100000 28.08600
13010 SI 13010 SI SI1 13010 1.100000 28.08600
13011 SI 13011 SI SI1 13011 1.100000 28.08600
13012 SI 13012 SI SI1 13012 1.100000 28.08600
13013 SI 13013 SI SI1 13013 1.100000 28.08600
13014 SI 13014 SI SI1 13014 1.100000 28.08600
13015 SI 13015 SI SI1 13015 1.100000 28.08600
13016 SI 13016 SI SI1 13016 1.100000 28.08600
13017 SI 13017 SI SI1 13017 1.100000 28.08600
13018 SI 13018 SI SI1 13018 1.100000 28.08600
13019 SI 13019 SI SI1 13019 1.100000 28.08600
13020 SI 13020 SI SI1 13020 1.100000 28.08600
13021 SI 13021 SI SI1 13021 1.100000 28.08600
13022 SI 13022 SI SI1 13022 1.100000 28.08600
13023 SI 13023 SI SI1 13023 1.100000 28.08600
13024 SI 13024 SI SI1 13024 1.100000 28.08600
13025 SI 13025 SI SI1 13025 1.100000 28.08600
13026 SI 13026 SI SI1 13026 1.100000 28.08600
13027 SI 13027 SI SI1 13027 1.100000 28.08600
13028 SI 13028 SI SI1 13028 1.100000 28.08600
13029 SI 13029 SI SI1 13029 1.100000 28.08600
13030 SI 13030 SI SI1 13030 1.100000 28.08600
13031 SI 13031 SI SI1 13031 1.100000 28.08600
13032 SI 13032 SI SI1 13032 1.100000 28.08600
13033 SI 13033 SI SI1 13033 1.100000 28.08600
13034 SI 13034 SI SI1 13034 1.100000 28.08600
13035 SI 13035 SI SI1 13035 1.100000 28.08600
13036 SI 13036 SI SI1 13036 1.100000 28.08600
13037 SI 13037 SI SI1 13037 1.100000 28.08600
13038 SI 13038 SI SI1 13038 1.100000 28.08600
13039 SI 13039 SI SI1 13039 1.100000 28.08600
13040 SI 13040 SI SI1 13040 1.100000 28.08600
13041 SI 13041 SI SI1 13041 1.100000 28.08600
13042 SI 13042 SI SI1 13042 1.100000 28.08600
13043 SI 13043 SI SI1 13043 1.100000 28.08600
13044 SI 13044 SI SI1 13044 1.100000 28.08600
13045 SI 13045 SI SI1 13045 1.100000 28.08600
13046 SI 13046 SI SI1 13046 1.100000 28.08600
13047 SI 13047 SI SI1 13047 1.100000 28.08600
13048 SI 13048 SI SI1 13048 1.100000 28.08600
13049 SI 13049 SI SI1 13049 1.100000 28.08600
13050 SI 13050 SI SI1 13050 1.100000 28.08600
13051 SI 13051 SI SI1 13051 1.100000 28.08600
13052 SI 13052 SI SI1 13052 1.100000 28.08600
13053 SI 13053 SI SI1 13053 1.100000 28.08600
13054 SI 13054 SI SI1 13054 1.100000 28.08600
13055 SI 13055 SI SI1 13055 1.100000 28.08600
13056 SI 13056 SI SI1 13056 1.100000 28.08600
13057 SI 13057 SI SI1 13057 1.100000 28.08600
13058 SI 13058 SI SI1 13058 1.100000 28.08600
13059 SI 13059 SI SI1 13059 1.100000 28.08600
13060 SI 13060 SI SI1 13060 1.100000 28.08600
13061 SI 13061 SI SI1 13061 1.100000 28.08600
13062 SI 13062 SI SI1 13062 1.100000 28.08600
13063 SI 13063 SI SI1 13063 1.100000 28.08600
13064 SI 13064 SI SI1 13064 1.100000 28.08600
13065 SI 13065 SI SI1 13065 1.100000 28.08600
13066 SI 13066 SI SI1 13066 1.100000 28.08600
13067 SI 13067 SI SI1 13067 1.100000 28.08600
13068 SI 13068 SI SI1 13068 1.100000 28.08600
13069 SI 13069 SI SI1 13069 1.100000 28.08600
13070 SI 13070 SI SI1 13070 1.100000 28.08600
13071 SI 13071 SI SI1 13071 1.100000 28.08600
13072 SI 13072 SI SI1 13072 1.100000 28.08600
13073 SI 13073 SI SI1 13073 1.100000 28.08600
13074 SI 13074 SI SI1 13074 1.100000 28.08600
13075 SI 13075 SI SI1 13075 1.100000 28.08600
13076 SI 13076 SI SI1 13076 1.100000 28.08600
13077 SI 13077 SI SI1 13077 1.100000 28.08600
13078 SI 13078 SI SI1 13078 1.100000 28.08600
13079 SI 13079 SI SI1 13079 1.100000 28.08600
13080 SI 13080 SI SI1 13080 1.100000 28.08600
13081 SI 13081 SI SI1 13081 1.100000 28.08600
13082 SI 13082 SI SI1 13082 1.100000 28.08600
13083 SI 13083 SI SI1 13083 1.100000 28.08600
13084 SI 13084 SI SI1 13084 1.100000 28.08600
13085 SI 13085 SI SI1 13085 1.100000 28.08600
13086 SI 13086 SI SI1 13086 1.100000 28.08600
13087 SI 13087 SI SI1 13087 1.100000 28.08600
13088 SI 13088 SI SI1 13088 1.100000 28.08600
13089 SI 13089 SI SI1 13089 1.100000 28.08600
13090 SI 13090 SI SI1 13090 1.100000 28.08600
13091 SI 13091 SI SI1 13091 1.100000 28.08600
13092 SI 13092 SI SI1 13092 1.100000 28.08600
13093 SI 13093 SI SI1 13093 1.100000 28.08600
13094 SI 13094 SI SI1 13094 1.100000 28.08600
13095 SI 13095 SI SI1 13095 1.100000 28.08600
13096 SI 13096 SI SI1 13096 1.100000 28.08600
13097 SI 13097 SI SI1 13097 1.100000 28.08600
13098 SI 13098 SI SI1 13098 1.100000 28.08600
13099 SI 13099 SI SI1 13099 1.100000 28.08600
13100 SI 13100 SI SI1 13100 1.100000 28.08600
13101 SI 13101 SI SI1 13101 1.100000 28.08600
13102 SI 13102 SI SI1 13102 1.100000 28.08600
13103 SI 13103 SI SI1 13103 1.100000 28.08600
13104 SI 13104 SI SI1 13104 1.100000 28.08600
13105 SI 13105 SI SI1 13105 1.100000 28.08600
13106 SI 13106 SI SI1 13106 1.100000 28.08600
13107 SI 13107 SI SI1 13107 1.100000 28.08600
13108 SI 13108 SI SI1 13108 1.100000 28.08600
13109 SI 13109 SI SI1 13109 1.100000 28.08600
13110 SI 13110 SI SI1 13110 1.100000 28.08600
13111 SI 13111 SI SI1 13111 1.100000 28.08600
13112 SI 13112 SI SI1 13112 1.100000 28.08600
13113 SI 13113 SI SI1 13113 1.100000 28.08600
13114 SI 13114 SI SI1 13114 1.100000 28.08600
13115 SI 13115 SI SI1 13115 1.100000 28.08600
13116 SI 13116 SI SI1 13116 1.100000 28.08600
13117 SI 13117 SI SI1 13117 1.100000 28.08600
13118 SI 13118 SI SI1 13118 1.100000 28.08600
13119 SI 13119 SI SI1 13119 1.100000 28.08600
13120 SI 13120 SI SI1 13120 1.100000 28.08600
13121 SI 13121 SI SI1 13121 1.100000 28.08600
13122 SI 13122 SI SI1 13122 1.100000 28.08600
13123 SI 13123 SI SI1 13123 1.100000 28.08600
13124 SI 13124 SI SI1 13124 1.100000 28.08600
13125 SI 13125 SI SI1 13125 1.100000 28.08600
13126 SI 13126 SI SI1 13126 1.100000 28.08600
13127 SI 13127 SI SI1 13127 1.100000 28.08600
13128 SI 13128 SI SI1 13128 1.100000 28.08600
13129 SI 13129 SI SI1 13129 1.100000 28.08600
13130 SI 13130 SI SI1 13130 1.100000 28.08600
13131 SI 13131 SI SI1 13131 1.100000 28.08600
13132 SI 13132 SI SI1 13132 1.100000 28.08600
13133 SI 13133 SI SI1 13133 1.100000 28.08600
13134 SI 13134 SI SI1 13134 1.100000 28.08600
13135 SI 13135 SI SI1 13135 1.100000 28.08600
13136 SI 13136 SI SI1 13136 1.100000 28.08600
13137 SI 13137 SI SI1 13137 1.100000 28.08600
13138 SI 13138 SI SI1 13138 1.100000 28.08600
13139 SI 13139 SI SI1 13139 1.100000 28.08600
13140 SI 13140 SI SI1 13140 1.100000 28.08600
13141 SI 13141 SI SI1 13141 1.100000 28.08600
13142 SI 13142 SI SI1 13142 1.100000 28.08600
13143 SI 13143 SI SI1 13143 1.100000 28.08600
13144 SI 13144 SI SI1 13144 1.100000 28.08600
13145 SI 13145 SI SI1 13145 1.100000 28.08600
13146 SI 13146 SI SI1 13146 1.100000 28.08600
13147 SI 13147 SI SI1 13147 1.100000 28.08600
13148 SI 13148 SI SI1 13148 1.100000 28.08600
13149 SI 13149 SI SI1 13149 1.100000 28.08600
13150 SI 13150 SI SI1 13150 1.100000 28.08600
13151 SI 13151 SI SI1 13151 1.100000 28.08600
13152 SI 13152 SI SI1 13152 1.100000 28.08600
13153 SI 13153 SI SI1 13153 1.100000 28.08600
13154 SI 13154 SI SI1 13154 1.100000 28.08600
13155 SI 13155 SI SI1 13155 1.100000 28.08600
13156 SI 13156 SI SI1 13156 1.100000 28.08600
13157 SI 13157 SI SI1 13157 1.100000 28.08600
13158 SI 13158 SI SI1 13158 1.100000 28.08600
13159 SI 13159 SI SI1 13159 1.100000 28.08600
13160 SI 13160 SI SI1 13160 1.100000 28.08600
13161 SI 13161 SI SI1 13161 1.100000 28.08600
13162 SI 13162 SI SI1 13162 1.100000 28.08600
13163 SI 13163 SI SI1 13163 1.100000 28.08600
13164 SI 13164 SI SI1 13164 1.100000 28.08600
13165 SI 13165 SI SI1 13165 1.100000 28.08600
13166 SI 13166 SI SI1 13166 1.100000 28.08600
13167 SI 13167 SI SI1 13167 1.100000 28.08600
13168 SI 13168 SI SI1 13168 1.100000 28.08600
13169 SI 13169 SI SI1 13169 1.100000 28.08600
13170 SI 13170 SI SI1 13170 1.100000 28.08600
13171 SI 13171 SI SI1 13171 1.100000 28.08600
13172 SI 13172 SI SI1 13172 1.100000 28.08600
13173 SI 13173 SI SI1 13173 1.100000 28.08600
13174 SI 13174 SI SI1 13174 1.100000 28.08600
13175 SI 13175 SI SI1 13175 1.100000 28.08600
13176 SI 13176 SI SI1 13176 1.100000 28.08600
13177 SI 13177 SI SI1 13177 1.100000 28.08600
13178 SI 13178 SI SI1 13178 1.100000 28.08600
13179 SI 13179 SI SI1 13179 1.100000 28.08600
13180 SI 13180 SI SI1 13180 1.100000 28.08600
13181 SI 13181 SI SI1 13181 1.100000 28.08600
13182 SI 13182 SI SI1 13182 1.100000 28.08600
13183 SI 13183 SI SI1 13183 1.100000 28.08600
13184 SI 13184 SI SI1 13184 1.100000 28.08600
13185 SI 13185 SI SI1 13185 1.100000 28.08600
13186 SI 13186 SI SI1 13186 1.100000 28.08600
13187 SI 13187 SI SI1 13187 1.100000 28.08600
13188 SI 13188 SI SI1 13188 1.100000 28.08600
13189 SI 13189 SI SI1 13189 1.100000 28.08600
13190 SI 13190 SI SI1 13190 1.100000 28.08600
13191 SI 13191 SI SI1 13191 1.100000 28.08600
13192 SI 13192 SI SI1 13192 1.100000 28.08600
13193 SI 13193 SI SI1 13193 1.100000 28.08600
13194 SI 13194 SI SI1 13194 1.100000 28.08600
13195 SI 13195 SI SI1 13195 1.100000 28.08600
13196 SI 13196 SI SI1 13196 1.100000 28.08600
13197 SI 13197 SI SI1 13197 1.100000 28.08600
13198 SI 13198 SI SI1 13198 1.100000 28.08600
13199 SI 13199 SI SI1 13199 1.100000 28.08600
13200 SI 13200 SI SI1 13200 1.100000 28.08600
13201 SI 13201 SI SI1 13201 1.100000 28.08600
13202 SI 13202 SI SI1 13202 1.100000 28.08600
13203 SI 13203 SI SI1 13203 1.100000 28.08600
13204 SI 13204 SI SI1 13204 1.100000 28.08600
13205 SI 13205 SI SI1 13205 1.100000 28.08600
13206 SI 13206 SI SI1 13206 1.100000 28.08600
13207 SI 13207 SI SI1 13207 1.100000 28.08600
13208 SI 13208 SI SI1 13208 1.100000 28.08600
13209 SI 13209 SI SI1 13209 1.100000 28.08600
13210 SI 13210 SI SI1 13210 1.100000 28.08600
13211 SI 13211 SI SI1 13211 1.100000 28.08600
13212 SI 13212 SI SI1 13212 1.100000 28.08600
13213 SI 13213 SI SI1 13213 1.100000 28.08600
13214 SI 13214 SI SI1 13214 1.100000 28.08600
13215 SI 13215 SI SI1 13215 1.100000 28.08600
13216 SI 13216 SI SI1 13216 1.100000 28.08600
13217 SI 13217 SI SI1 13217 1.100000 28.08600
13218 SI 13218 SI SI1 13218 1.100000 28.08600
13219 SI 13219 SI SI1 13219 1.100000 28.08600
13220 SI 13220 SI SI1 13220 1.100000 28.08600
13221 SI 13221 SI SI1 13221 1.100000 28.08600
13222 SI 13222 SI SI1 13222 1.100000 28.08600
13223 SI 13223 SI SI1 13223 1.100000 28.08600
13224 SI 13224 SI SI1 13224 1.100000 28.08600
13225 SI 13225 SI SI1 13225 1.100000 28.08600
13226 SI 13226 SI SI1 13226 1.100000 28.08600
13227 SI 13227 SI SI1 13227 1.100000 28.08600
13228 SI 13228 SI SI1 13228 1.100000 28.08600
13229 SI 13229 SI SI1 13229 1.100000 28.08600
13230 SI 13230 SI SI1 13230 1.100000 28.08600
13231 SI 13231 SI SI1 13231 1.100000 28.08600
13232 SI 13232 SI SI1 13232 1.100000 28.08600
13233 SI 13233 SI SI1 13233 1.100000 28.08600
13234 SI 13234 SI SI1 13234 1.100000 28.08600
13235 SI 13235 SI SI1 13235 1.100000 28.08600
13236 SI 13236 SI SI1 13236 1.100000 28.08600
13237 SI 13237 SI SI1 13237 1.100000 28.08600
13238 SI 13238 SI SI1 13238 1.100000 28.08600
13239 SI 13239 SI SI1 13239 1.100000 28.08600
13240 SI 13240 SI SI1 13240 1.100000 28.08600
13241 SI 13241 SI SI1 13241 1.100000 28.08600
13242 SI 13242 SI SI1 13242 1.100000 28.08600
13243 SI 13243 SI SI1 13243 1.100000 28.08600
13244 SI 13244 SI SI1 13244 1.100000 28.08600
13245 SI 13245 SI SI1 13245 1.100000 28.08600
13246 SI 13246 SI SI1 13246 1.100000 28.08600
13247 SI 13247 SI SI1 13247 1.100000 28.08600
13248 SI 13248 SI SI1 13248 1.100000 28.08600
13249 SI 13249 SI SI1 13249 1.100000 28.08600
13250 SI 13250 SI SI1 13250 1.100000 28.08600
13251 SI 13251 SI SI1 13251 1.100000 28.08600
13252 SI 13252 SI SI1 13252 1.100000 28.08600
13253 SI 13253 SI SI1 13253 1.100000 28.08600
13254 SI 13254 SI SI1 13254 1.100000 28.08600
13255 SI 13255 SI SI1 13255 1.100000 28.08600
13256 SI 13256 SI SI1 13256 1.100000 28.08600
13257 SI 13257 SI SI1 13257 1.100000 28.08600
13258 SI 13258 SI SI1 13258 1.100000 28.08600
13259 SI 13259 SI SI1 13259 1.100000 28.08600
13260 SI 13260 SI SI1 13260 1.100000 28.08600
13261 SI 13261 SI SI1 13261 1.100000 28.08600
13262 SI 13262 SI SI1 13262 1.100000 28.08600
13263 SI 13263 SI SI1 13263 1.100000 28.08600
13264 SI 13264 SI SI1 13264 1.100000 28.08600
13265 SI 13265 SI SI1 13265 1.100000 28.08600
13266 SI 13266 SI SI1 13266 1.100000 28.08600
13267 SI 13267 SI SI1 13267 1.100000 28.08600
13268 SI 13268 SI SI1 13268 1.100000 28.08600
13269 SI 13269 SI SI1 13269 1.100000 28.08600
13270 SI 13270 SI SI1 13270 1.100000 28.08600
13271 SI 13271 SI SI1 13271 1.100000 28.08600
13272 SI 13272 SI SI1 13272 1.100000 28.08600
13273 SI 13273 SI SI1 13273 1.100000 28.08600
13274 SI 13274 SI SI1 13274 1.100000 28.08600
13275 SI 13275 SI SI1 13275 1.100000 28.08600
13276 SI 13276 SI SI1 13276 1.100000 28.08600
13277 SI 13277 SI SI1 13277 1.100000 28.08600
13278 SI 13278 SI SI1 13278 1.100000 28.08600
13279 SI 13279 SI SI1 13279 1.100000 28.08600
13280 SI 13280 SI SI1 13280 1.100000 28.08600
13281 SI 13281 SI SI1 13281 1.100000 28.08600
13282 SI 13282 SI SI1 13282 1.100000 28.08600
13283 SI 13283 SI SI1 13283 1.100000 28.08600
13284 SI 13284 SI SI1 13284 1.100000 28.08600
13285 SI 13285 SI SI1 13285 1.100000 28.08600
13286 SI 13286 SI SI1 13286 1.100000 28.08600
13287 SI 13287 SI SI1 13287 1.100000 28.08600
13288 SI 13288 SI SI1 13288 1.100000 28.08600
13289 SI 13289 SI SI1 13289 1.100000 28.08600
13290 SI 13290 SI SI1 13290 1.100000 28.08600
13291 SI 13291 SI SI1 13291 1.100000 28.08600
13292 SI 13292 SI SI1 13292 1.100000 28.08600
13293 SI 13293 SI SI1 13293 1.100000 28.08600
13294 SI 13294 SI SI1 13294 1.100000 28.08600
13295 SI 13295 SI SI1 13295 1.100000 28.08600
13296 SI 13296 SI SI1 13296 1.100000 28.08600
13297 SI 13297 SI SI1 13297 1.100000 28.08600
13298 SI 13298 SI SI1 13298 1.100000 28.08600
13299 SI 13299 SI SI1 13299 1.100000 28.08600
13300 SI 13300 SI SI1 13300 1.100000 28.08600
13301 SI 13301 SI SI1 13301 1.100000 28.08600
13302 SI 13302 SI SI1 13302 1.100000 28.08600
13303 SI 13303 SI SI1 13303 1.100000 28.08600
13304 SI 13304 SI SI1 13304 1.100000 28.08600
13305 SI 13305 SI SI1 13305 1.100000 28.08600
13306 SI 13306 SI SI1 13306 1.100000 28.08600
13307 SI 13307 SI SI1 13307 1.100000 28.08600
13308 SI 13308 SI SI1 13308 1.100000 28.08600
13309 SI 13309 SI SI1 13309 1.100000 28.08600
13310 SI 13310 SI SI1 13310 1.100000 28.08600
13311 SI 13311 SI SI1 13311 1.100000 28.08600
13312 SI 13312 SI SI1 13312 1.100000 28.08600
13313 SI 13313 SI SI1 13313 1.100000 28.08600
13314 SI 13314 SI SI1 13314 1.100000 28.08600
13315 SI 13315 SI SI1 13315 1.100000 28.08600
13316 SI 13316 SI SI1 13316 1.100000 28.08600
13317 SI 13317 SI SI1 13317 1.100000 28.08600
13318 SI 13318 SI SI1 13318 1.100000 28.08600
13319 SI 13319 SI SI1 13319 1.100000 28.08600
13320 SI 13320 SI SI1 13320 1.100000 28.08600
13321 SI 13321 SI SI1 13321 1.100000 28.08600
13322 SI 13322 SI SI1 13322 1.100000 28.08600
13323 SI 13323 SI SI1 13323 1.100000 28.08600
13324 SI 13324 SI SI1 13324 1.100000 28.08600
13325 SI 13325 SI SI1 13325 1.100000 28.08600
13326 SI 13326 SI SI1 13326 1.100000 28.08600
13327 SI 13327 SI SI1 13327 1.100000 28.08600
13328 SI 13328 SI SI1 13328 1.100000 28.08600
13329 SI 13329 SI SI1 13329 1.100000 28.08600
13330 SI 13330 SI SI1 13330 1.100000 28.08600
13331 SI 13331 SI SI1 13331 1.100000 28.08600
13332 SI 13332 SI SI1 13332 1.100000 28.08600
13333 SI 13333 SI SI1 13333 1.100000 28.08600
13334 SI 13334 SI SI1 13334 1.100000 28.08600
13335 SI 13335 SI SI1 13335 1.100000 28.08600
13336 SI 13336 SI SI1 13336 1.100000 28.08600
13337 SI 13337 SI SI1 13337 1.100000 28.08600
13338 SI 13338 SI SI1 13338 1.100000 28.08600
13339 SI 13339 SI SI1 13339 1.100000 28.08600
13340 SI 13340 SI SI1 13340 1.100000 28.08600
13341 SI 13341 SI SI1 13341 1.100000 28.08600
13342 SI 13342 SI SI1 13342 1.100000 28.08600
13343 SI 13343 SI SI1 13343 1.100000 28.08600
13344 SI 13344 SI SI1 13344 1.100000 28.08600
13345 SI 13345 SI SI1 13345 1.100000 28.08600
13346 SI 13346 SI SI1 13346 1.100000 28.08600
13347 SI 13347 SI SI1 13347 1.100000 28.08600
13348 SI 13348 SI SI1 13348 1.100000 28.08600
13349 SI 13349 SI SI1 13349 1.100000 28.08600
13350 SI 13350 SI SI1 13350 1.100000 28.08600
13351 SI 13351 SI SI1 13351 1.100000 28.08600
13352 SI 13352 SI SI1 13352 1.100000 28.08600
13353 SI 13353 SI SI1 13353 1.100000 28.08600
13354 SI 13354 SI SI1 13354 1.100000 28.08600
13355 SI 13355 SI SI1 13355 1.100000 28.08600
13356 SI 13356 SI SI1 13356 1.100000 28.08600
13357 SI 13357 SI SI1 13357 1.100000 28.08600
13358 SI 13358 SI SI1 13358 1.100000 28.08600
13359 SI 13359 SI SI1 13359 1.100000 28.08600
13360 SI 13360 SI SI1 13360 1.100000 28.08600
13361 SI 13361 SI SI1 13361 1.100000 28.08600
13362 SI 13362 SI SI1 13362 1.100000 28.08600
13363 SI 13363 SI SI1 13363 1.100000 28.08600
13364 SI 13364 SI SI1 13364 1.100000 28.08600
13365 SI 13365 SI SI1 13365 1.100000 28.08600
13366 SI 13366 SI SI1 13366 1.100000 28.08600
13367 SI 13367 SI SI1 13367 1.100000 28.08600
13368 SI 13368 SI SI1 13368 1.100000 28.08600
13369 SI 13369 SI SI1 13369 1.100000 28.08600
13370 SI 13370 SI SI1 13370 1.100000 28.08600
13371 SI 13371 SI SI1 13371 1.100000 28.08600
13372 SI 13372 SI SI1 13372 1.100000 28.08600
13373 SI 13373 SI SI1 13373 1.100000 28.08600
13374 SI 13374 SI SI1 13374 1.100000 28.08600
13375 SI 13375 SI SI1 13375 1.100000 28.08600
13376 SI 13376 SI SI1 13376 1.100000 28.08600
13377 SI 13377 SI SI1 13377 1.100000 28.08600
13378 SI 13378 SI SI1 13378 1.100000 28.08600
13379 SI 13379 SI SI1 13379 1.100000 28.08600
13380 SI 13380 SI SI1 13380 1.100000 28.08600
13381 SI 13381 SI SI1 13381 1.100000 28.08600
13382 SI 13382 SI SI1 13382 1.100000 28.08600
13383 SI 13383 SI SI1 13383 1.100000 28.08600
13384 SI 13384 SI SI1 13384 1.100000 28.08600
13385 SI 13385 SI SI1 13385 1.100000 28.08600
13386 SI 13386 SI SI1 13386 1.100000 28.08600
13387 SI 13387 SI SI1 13387 1.100000 28.08600
13388 SI 13388 SI SI1 13388 1.100000 28.08600
13389 SI 13389 SI SI1 13389 1.100000 28.08600
13390 SI 13390 SI SI1 13390 1.100000 28.08600
13391 SI 13391 SI SI1 13391 1.100000 28.08600
13392 SI 13392 SI SI1 13392 1.100000 28.08600
13393 SI 13393 SI SI1 13393 1.100000 28.08600
13394 SI 13394 SI SI1 13394 1.100000 28.08600
13395 SI 13395 SI SI1 13395 1.100000 28.08600
13396 SI 13396 SI SI1 13396 1.100000 28.08600
13397 SI 13397 SI SI1 13397 1.100000 28.08600
13398 SI 13398 SI SI1 13398 1.100000 28.08600
13399 SI 13399 SI SI1 13399 1.100000 28.08600
13400 SI 13400 SI SI1 13400 1.100000 28.08600
13401 SI 13401 SI SI1 13401 1.100000 28.08600
13402 SI 13402 SI SI1 13402 1.100000 28.08600
13403 SI 13403 SI SI1 13403 1.100000 28.08600
13404 SI 13404 SI SI1 13404 1.100000 28.08600
13405 SI 13405 SI SI1 13405 1.100000 28.08600
13406 SI 13406 SI SI1 13406 1.100000 28.08600
13407 SI 13407 SI SI1 13407 1.100000 28.08600
13408 SI 13408 SI SI1 13408 1.100000 28.08600
13409 SI 13409 SI SI1 13409 1.100000 28.08600
13410 SI 13410 SI SI1 13410 1.100000 28.08600
13411 SI 13411 SI SI1 13411 1.100000 28.08600
13412 SI 13412 SI SI1 13412 1.100000 28.08600
13413 SI 13413 SI SI1 13413 1.100000 28.08600
13414 SI 13414 SI SI1 13414 1.100000 28.08600
13415 SI 13415 SI SI1 13415 1.100000 28.08600
13416 SI 13416 SI SI1 13416 1.100000 28.08600
13417 SI 13417 SI SI1 13417 1.100000 28.08600
13418 SI 13418 SI SI1 13418 1.100000 28.08600
13419 SI 13419 SI SI1 13419 1.100000 28.08600
13420 SI 13420 SI SI1 13420 1.100000 28.08600
13421 SI 13421 SI SI1 13421 1.100000 28.08600
13422 SI 13422 SI SI1 13422 1.100000 28.08600
13423 SI 13423 SI SI1 13423 1.100000 28.08600
13424 SI 13424 SI SI1 13424 1.100000 28.08600
13425 SI 13425 SI SI1 13425 1.100000 28.08600
13426 SI 13426 SI SI1 13426 1.100000 28.08600
13427 SI 13427 SI SI1 13427 1.100000 28.08600
13428 SI 13428 SI SI1 13428 1.100000 28.08600
13429 SI 13429 SI SI1 13429 1.100000 28.08600
13430 SI 13430 SI SI1 13430 1.100000 28.08600
13431 SI 13431 SI SI1 13431 1.100000 28.08600
13432 SI 13432 SI SI1 13432 1.100000 28.08600
13433 SI 13433 SI SI1 13433 1.100000 28.08600
13434 SI 13434 SI SI1 13434 1.100000 28.08600
13435 SI 13435 SI SI1 13435 1.100000 28.08600
13436 SI 13436 SI SI1 13436 1.100000 28.08600
13437 SI 13437 SI SI1 13437 1.100000 28.08600
13438 SI 13438 SI SI1 13438 1.100000 28.08600
13439 SI 13439 SI SI1 13439 1.100000 28.08600
13440 SI 13440 SI SI1 13440 1.100000 28.08600
13441 SI 13441 SI SI1 13441 1.100000 28.08600
13442 SI 13442 SI SI1 13442 1.100000 28.08600
13443 SI 13443 SI SI1 13443 1.100000 28.08600
13444 SI 13444 SI SI1 13444 1.100000 28.08600
13445 SI 13445 SI SI1 13445 1.100000 28.08600
13446 SI 13446 SI SI1 13446 1.100000 28.08600
13447 SI 13447 SI SI1 13447 1.100000 28.08600
13448 SI 13448 SI SI1 13448 1.100000 28.08600
13449 SI 13449 SI SI1 13449 1.100000 28.08600
13450 SI 13450 SI SI1 13450 1.100000 28.08600
13451 SI 13451 SI SI1 13451 1.100000 28.08600
13452 SI 13452 SI SI1 13452 1.100000 28.08600
13453 SI 13453 SI SI1 13453 1.100000 28.08600
13454 SI 13454 SI SI1 13454 1.100000 28.08600
13455 SI 13455 SI SI1 13455 1.100000 28.08600
13456 SI 13456 SI SI1 13456 1.100000 28.08600
13457 SI 13457 SI SI1 13457 1.100000 28.08600
13458 SI 13458 SI SI1 13458 1.100000 28.08600
13459 SI 13459 SI SI1 13459 1.100000 28.08600
13460 SI 13460 SI SI1 13460 1.100000 28.08600
13461 SI 13461 SI SI1 13461 1.100000 28.08600
13462 SI 13462 SI SI1 13462 1.100000 28.08600
13463 SI 13463 SI SI1 13463 1.100000 28.08600
13464 SI 13464 SI SI1 13464 1.100000 28.08600
13465 SI 13465 SI SI1 13465 1.100000 28.08600
13466 SI 13466 SI SI1 13466 1.100000 28.08600
13467 SI 13467 SI SI1 13467 1.100000 28.08600
13468 SI 13468 SI SI1 13468 1.100000 28.08600
13469 SI 13469 SI SI1 13469 1.100000 28.08600
13470 SI 13470 SI SI1 13470 1.100000 28.08600
13471 SI 13471 SI SI1 13471 1.100000 28.08600
13472 SI 13472 SI SI1 13472 1.100000 28.08600
13473 SI 13473 SI SI1 13473 1.100000 28.08600
13474 SI 13474 SI SI1 13474 1.100000 28.08600
13475 SI 13475 SI SI1 13475 1.100000 28.08600
13476 SI 13476 SI SI1 13476 1.100000 28.08600
13477 SI 13477 SI SI1 13477 1.100000 28.08600
13478 SI 13478 SI SI1 13478 1.100000 28.08600
13479 SI 13479 SI SI1 13479 1.100000 28.08600
13480 SI 13480 SI SI1 13480 1.100000 28.08600
13481 SI 13481 SI SI1 13481 1.100000 28.08600
13482 SI 13482 SI SI1 13482 1.100000 28.08600
13483 SI 13483 SI SI1 13483 1.100000 28.08600
13484 SI 13484 SI SI1 13484 1.100000 28.08600
13485 SI 13485 SI SI1 13485 1.100000 28.08600
13486 SI 13486 SI SI1 13486 1.100000 28.08600
13487 SI 13487 SI SI1 13487 1.100000 28.08600
13488 SI 13488 SI SI1 13488 1.100000 28.08600
13489 SI 13489 SI SI1 13489 1.100000 28.08600
13490 SI 13490 SI SI1 13490 1.100000 28.08600
13491 SI 13491 SI SI1 13491 1.100000 28.08600
13492 SI 13492 SI SI1 13492 1.100000 28.08600
13493 SI 13493 SI SI1 13493 1.100000 28.08600
13494 SI 13494 SI SI1 13494 1.100000 28.08600
13495 SI 13495 SI SI1 13495 1.100000 28.08600
13496 SI 13496 SI SI1 13496 1.100000 28.08600
13497 SI 13497 SI SI1 13497 1.100000 28.08600
13498 SI 13498 SI SI1 13498 1.100000 28.08600
13499 SI 13499 SI SI1 13499 1.100000 28.08600
13500 SI 13500 SI SI1 13500 1.100000 28.08600
13501 SI 13501 SI SI1 13501 1.100000 28.08600
13502 SI 13502 SI SI1 13502 1.100000 28.08600
13503 SI 13503 SI SI1 13503 1.100000 28.08600
13504 SI 13504 SI SI1 13504 1.100000 28.08600
13505 SI 13505 SI SI1 13505 1.100000 28.08600
13506 SI 13506 SI SI1 13506 1.100000 28.08600
13507 SI 13507 SI SI1 13507 1.100000 28.08600
13508 SI 13508 SI SI1 13508 1.100000 28.08600
13509 SI 13509 SI SI1 13509 1.100000 28.08600
13510 SI 13510 SI SI1 13510 1.100000 28.08600
13511 SI 13511 SI SI1 13511 1.100000 28.08600
13512 SI 13512 SI SI1 13512 1.100000 28.08600
13513 SI 13513 SI SI1 13513 1.100000 28.08600
13514 SI 13514 SI SI1 13514 1.100000 28.08600
13515 SI 13515 SI SI1 13515 1.100000 28.08600
13516 SI 13516 SI SI1 13516 1.100000 28.08600
13517 SI 13517 SI SI1 13517 1.100000 28.08600
13518 SI 13518 SI SI1 13518 1.100000 28.08600
13519 SI 13519 SI SI1 13519 1.100000 28.08600
13520 SI 13520 SI SI1 13520 1.100000 28.08600
13521 SI 13521 SI SI1 13521 1.100000 28.08600
13522 SI 13522 SI SI1 13522 1.100000 28.08600
13523 SI 13523 SI SI1 13523 1.100000 28.08600
13524 SI 13524 SI SI1 13524 1.100000 28.08600
13525 SI 13525 SI SI1 13525 1.100000 28.08600
13526 SI 13526 SI SI1 13526 1.100000 28.08600
13527 SI 13527 SI SI1 13527 1.100000 28.08600
13528 SI 13528 SI SI1 13528 1.100000 28.08600
13529 SI 13529 SI SI1 13529 1.100000 28.08600
13530 SI 13530 SI SI1 13530 1.100000 28.08600
13531 SI 13531 SI SI1 13531 1.100000 28.08600
13532 SI 13532 SI SI1 13532 1.100000 28.08600
13533 SI 13533 SI SI1 13533 1.100000 28.08600
13534 SI 13534 SI SI1 13534 1.100000 28.08600
13535 SI 13535 SI SI1 13535 1.100000 28.08600
13536 SI 13536 SI SI1 13536 1.100000 28.08600
13537 SI 13537 SI SI1 13537 1.100000 28.08600
13538 SI 13538 SI SI1 13538 1.100000 28.08600
13539 SI 13539 SI SI1 13539 1.100000 28.08600
13540 SI 13540 SI SI1 13540 1.100000 28.08600
13541 SI 13541 SI SI1 13541 1.100000 28.08600
13542 SI 13542 SI SI1 13542 1.100000 28.08600
13543 SI 13543 SI SI1 13543 1.100000 28.08600
13544 SI 13544 SI SI1 13544 1.100000 28.08600
13545 SI 13545 SI SI1 13545 1.100000 28.08600
13546 SI 13546 SI SI1 13546 1.100000 28.08600
13547 SI 13547 SI SI1 13547 1.100000 28.08600
13548 SI 13548 SI SI1 13548 1.100000 28.08600
13549 SI 13549 SI SI1 13549 1.100000 28.08600
13550 SI 13550 SI SI1 13550 1.100000 28.08600
13551 SI 13551 SI SI1 13551 1.100000 28.08600
13552 SI 13552 SI SI1 13552 1.100000 28.08600
13553 SI 13553 SI SI1 13553 1.100000 28.08600
13554 SI 13554 SI SI1 13554 1.100000 28.08600
13555 SI 13555 SI SI1 13555 1.100000 28.08600
13556 SI 13556 SI SI1 13556 1.100000 28.08600
13557 SI 13557 SI SI1 13557 1.100000 28.08600
13558 SI 13558 SI SI1 13558 1.100000 28.08600
13559 SI 13559 SI SI1 13559 1.100000 28.08600
13560 SI 13560 SI SI1 13560 1.100000 28.08600
13561 SI 13561 SI SI1 13561 1.100000 28.08600
13562 SI 13562 SI SI1 13562 1.100000 28.08600
13563 SI 13563 SI SI1 13563 1.100000 28.08600
13564 SI 13564 SI SI1 13564 1.100000 28.08600
13565 SI 13565 SI SI1 13565 1.100000 28.08600
13566 SI 13566 SI SI1 13566 1.100000 28.08600
13567 SI 13567 SI SI1 13567 1.100000 28.08600
13568 SI 13568 SI SI1 13568 1.100000 28.08600
13569 SI 13569 SI SI1 13569 1.100000 28.08600
13570 SI 13570 SI SI1 13570 1.100000 28.08600
13571 SI 13571 SI SI1 13571 1.100000 28.08600
13572 SI 13572 SI SI1 13572 1.100000 28.08600
13573 SI 13573 SI SI1 13573 1.100000 28.08600
13574 SI 13574 SI SI1 13574 1.100000 28.08600
13575 SI 13575 SI SI1 13575 1.100000 28.08600
13576 SI 13576 SI SI1 13576 1.100000 28.08600
13577 SI 13577 SI SI1 13577 1.100000 28.08600
13578 SI 13578 SI SI1 13578 1.100000 28.08600
13579 SI 13579 SI SI1 13579 1.100000 28.08600
13580 SI 13580 SI SI1 13580 1.100000 28.08600
13581 SI 13581 SI SI1 13581 1.100000 28.08600
13582 SI 13582 SI SI1 13582 1.100000 28.08600
13583 SI 13583 SI SI1 13583 1.100000 28.08600
13584 SI 13584 SI SI1 13584 1.100000 28.08600
13585 SI 13585 SI SI1 13585 1.100000 28.08600
13586 SI 13586 SI SI1 13586 1.100000 28.08600
13587 SI 13587 SI SI1 13587 1.100000 28.08600
13588 SI 13588 SI SI1 13588 1.100000 28.08600
13589 SI 13589 SI SI1 13589 1.100000 28.08600
13590 SI 13590 SI SI1 13590 1.100000 28.08600
13591 SI 13591 SI SI1 13591 1.100000 28.08600
13592 SI 13592 SI SI1 13592 1.100000 28.08600
13593 SI 13593 SI SI1 13593 1.100000 28.08600
13594 SI 13594 SI SI1 13594 1.100000 28.08600
13595 SI 13595 SI SI1 13595 1.100000 28.08600
13596 SI 13596 SI SI1 13596 1.100000 28.08600
13597 SI 13597 SI SI1 13597 1.100000 28.08600
13598 SI 13598 SI SI1 13598 1.100000 28.08600
13599 SI 13599 SI SI1 13599 1.100000 28.08600
13600 SI 13600 SI SI1 13600 1.100000 28.08600
13601 SI 13601 SI SI1 13601 1.100000 28.08600
13602 SI 13602 SI SI1 13602 1.100000 28.08600
13603 SI 13603 SI SI1 13603 1.100000 28.08600
13604 SI 13604 SI SI1 13604 1.100000 28.08600
13605 SI 13605 SI SI1 13605 1.100000 28.08600
13606 SI 13606 SI SI1 13606 1.100000 28.08600
13607 SI 13607 SI SI1 13607 1.100000 28.08600
13608 SI 13608 SI SI1 13608 1.100000 28.08600
13609 SI 13609 SI SI1 13609 1.100000 28.08600
13610 SI 13610 SI SI1 13610 1.100000 28.08600
13611 SI 13611 SI SI1 13611 1.100000 28.08600
13612 SI 13612 SI SI1 13612 1.100000 28.08600
13613 SI 13613 SI SI1 13613 1.100000 28.08600
13614 SI 13614 SI SI1 13614 1.100000 28.08600
13615 SI 13615 SI SI1 13615 1.100000 28.08600
13616 SI 13616 SI SI1 13616 1.100000 28.08600
13617 SI 13617 SI SI1 13617 1.100000 28.08600
13618 SI 13618 SI SI1 13618 1.100000 28.08600
13619 SI 13619 SI SI1 13619 1.100000 28.08600
13620 SI 13620 SI SI1 13620 1.100000 28.08600
13621 SI 13621 SI SI1 13621 1.100000 28.08600
13622 SI 13622 SI SI1 13622 1.100000 28.08600
13623 SI 13623 SI SI1 13623 1.100000 28.08600
13624 SI 13624 SI SI1 13624 1.100000 28.08600
13625 SI 13625 SI SI1 13625 1.100000 28.08600
13626 SI 13626 SI SI1 13626 1.100000 28.08600
13627 SI 13627 SI SI1 13627 1.100000 28.08600
13628 SI 13628 SI SI1 13628 1.100000 28.08600
13629 SI 13629 SI SI1 13629 1.100000 28.08600
13630 SI 13630 SI SI1 13630 1.100000 28.08600
13631 SI 13631 SI SI1 13631 1.100000 28.08600
13632 SI 13632 SI SI1 13632 1.100000 28.08600
13633 SI 13633 SI SI1 13633 1.100000 28.08600
13634 SI 13634 SI SI1 13634 1.100000 28.08600
13635 SI 13635 SI SI1 13635 1.100000 28.08600
13636 SI 13636 SI SI1 13636 1.100000 28.08600
13637 SI 13637 SI SI1 13637 1.100000 28.08600
13638 SI 13638 SI SI1 13638 1.100000 28.08600
13639 SI 13639 SI SI1 13639 1.100000 28.08600
13640 SI 13640 SI SI1 13640 1.100000 28.08600
13641 SI 13641 SI SI1 13641 1.100000 28.08600
13642 SI 13642 SI SI1 13642 1.100000 28.08600
13643 SI 13643 SI SI1 13643 1.100000 28.08600
13644 SI 13644 SI SI1 13644 1.100000 28.08600
13645 SI 13645 SI SI1 13645 1.100000 28.08600
13646 SI 13646 SI SI1 13646 1.100000 28.08600
13647 SI 13647 SI SI1 13647 1.100000 28.08600
13648 SI 13648 SI SI1 13648 1.100000 28.08600
13649 SI 13649 SI SI1 13649 1.100000 28.08600
13650 SI 13650 SI SI1 13650 1.100000 28.08600
13651 SI 13651 SI SI1 13651 1.100000 28.08600
13652 SI 13652 SI SI1 13652 1.100000 28.08600
13653 SI 13653 SI SI1 13653 1.100000 28.08600
13654 SI 13654 SI SI1 13654 1.100000 28.08600
13655 SI 13655 SI SI1 13655 1.100000 28.08600
13656 SI 13656 SI SI1 13656 1.100000 28.08600
13657 SI 13657 SI SI1 13657 1.100000 28.08600
13658 SI 13658 SI SI1 13658 1.100000 28.08600
13659 SI 13659 SI SI1 13659 1.100000 28.08600
13660 SI 13660 SI SI1 13660 1.100000 28.08600
13661 SI 13661 SI SI1 13661 1.100000 28.08600
13662 SI 13662 SI SI1 13662 1.100000 28.08600
13663 SI 13663 SI SI1 13663 1.100000 28.08600
13664 SI 13664 SI SI1 13664 1.100000 28.08600
13665 SI 13665 SI SI1 13665 1.100000 28.08600
13666 SI 13666 SI SI1 13666 1.100000 28.08600
13667 SI 13667 SI SI1 13667 1.100000 28.08600
13668 SI 13668 SI SI1 13668 1.100000 28.08600
13669 SI 13669 SI SI1 13669 1.100000 28.08600
13670 SI 13670 SI SI1 13670 1.100000 28.08600
13671 SI 13671 SI SI1 13671 1.100000 28.08600
13672 SI 13672 SI SI1 13672 1.100000 28.08600
13673 SI 13673 SI SI1 13673 1.100000 28.08600
13674 SI 13674 SI SI1 13674 1.100000 28.08600
13675 SI 13675 SI SI1 13675 1.100000 28.08600
13676 SI 13676 SI SI1 13676 1.100000 28.08600
13677 SI 13677 SI SI1 13677 1.100000 28.08600
13678 SI 13678 SI SI1 13678 1.100000 28.08600
13679 SI 13679 SI SI1 13679 1.100000 28.08600
13680 SI 13680 SI SI1 13680 1.100000 28.08600
13681 SI 13681 SI SI1 13681 1.100000 28.08600
13682 SI 13682 SI SI1 13682 1.100000 28.08600
13683 SI 13683 SI SI1 13683 1.100000 28.08600
13684 SI 13684 SI SI1 13684 1.100000 28.08600
13685 SI 13685 SI SI1 13685 1.100000 28.08600
13686 SI 13686 SI SI1 13686 1.100000 28.08600
13687 SI 13687 SI SI1 13687 1.100000 28.08600
13688 SI 13688 SI SI1 13688 1.100000 28.08600
13689 SI 13689 SI SI1 13689 1.100000 28.08600
13690 SI 13690 SI SI1 13690 1.100000 28.08600
13691 SI 13691 SI SI1 13691 1.100000 28.08600
13692 SI 13692 SI SI1 13692 1.100000 28.08600
13693 SI 13693 SI SI1 13693 1.100000 28.08600
13694 SI 13694 SI SI1 13694 1.100000 28.08600
13695 SI 13695 SI SI1 13695 1.100000 28.08600
13696 SI 13696 SI SI1 13696 1.100000 28.08600
13697 SI 13697 SI SI1 13697 1.100000 28.08600
13698 SI 13698 SI SI1 13698 1.100000 28.08600
13699 SI 13699 SI SI1 13699 1.100000 28.08600
13700 SI 13700 SI SI1 13700 1.100000 28.08600
13701 SI 13701 SI SI1 13701 1.100000 28.08600
13702 SI 13702 SI SI1 13702 1.100000 28.08600
13703 SI 13703 SI SI1 13703 1.100000 28.08600
13704 SI 13704 SI SI1 13704 1.100000 28.08600
13705 SI 13705 SI SI1 13705 1.100000 28.08600
13706 SI 13706 SI SI1 13706 1.100000 28.08600
13707 SI 13707 SI SI1 13707 1.100000 28.08600
13708 SI 13708 SI SI1 13708 1.100000 28.08600
13709 SI 13709 SI SI1 13709 1.100000 28.08600
13710 SI 13710 SI SI1 13710 1.100000 28.08600
13711 SI 13711 SI SI1 13711 1.100000 28.08600
13712 SI 13712 SI SI1 13712 1.100000 28.08600
13713 SI 13713 SI SI1 13713 1.100000 28.08600
13714 SI 13714 SI SI1 13714 1.100000 28.08600
13715 SI 13715 SI SI1 13715 1.100000 28.08600
13716 SI 13716 SI SI1 13716 1.100000 28.08600
13717 SI 13717 SI SI1 13717 1.100000 28.08600
13718 SI 13718 SI SI1 13718 1.100000 28.08600
13719 SI 13719 SI SI1 13719 1.100000 28.08600
13720 SI 13720 SI SI1 13720 1.100000 28.08600
13721 SI 13721 SI SI1 13721 1.100000 28.08600
13722 SI 13722 SI SI1 13722 1.100000 28.08600
13723 SI 13723 SI SI1 13723 1.100000 28.08600
13724 SI 13724 SI SI1 13724 1.100000 28.08600
13725 SI 13725 SI SI1 13725 1.100000 28.08600
13726 SI 13726 SI SI1 13726 1.100000 28.08600
13727 SI 13727 SI SI1 13727 1.100000 28.08600
13728 SI 13728 SI SI1 13728 1.100000 28.08600
13729 SI 13729 SI SI1 13729 1.100000 28.08600
13730 SI 13730 SI SI1 13730 1.100000 28.08600
13731 SI 13731 SI SI1 13731 1.100000 28.08600
13732 SI 13732 SI SI1 13732 1.100000 28.08600
13733 SI 13733 SI SI1 13733 1.100000 28.08600
13734 SI 13734 SI SI1 13734 1.100000 28.08600
13735 SI 13735 SI SI1 13735 1.100000 28.08600
13736 SI 13736 SI SI1 13736 1.100000 28.08600
13737 SI 13737 SI SI1 13737 1.100000 28.08600
13738 SI 13738 SI SI1 13738 1.100000 28.08600
13739 SI 13739 SI SI1 13739 1.100000 28.08600
13740 SI 13740 SI SI1 13740 1.100000 28.08600
13741 SI 13741 SI SI1 13741 1.100000 28.08600
13742 SI 13742 SI SI1 13742 1.100000 28.08600
13743 SI 13743 SI SI1 13743 1.100000 28.08600
13744 SI 13744 SI SI1 13744 1.100000 28.08600
13745 SI 13745 SI SI1 13745 1.100000 28.08600
13746 SI 13746 SI SI1 13746 1.100000 28.08600
13747 SI 13747 SI SI1 13747 1.100000 28.08600
13748 SI 13748 SI SI1 13748 1.100000 28.08600
13749 SI 13749 SI SI1 13749 1.100000 28.08600
13750 SI 13750 SI SI1 13750 1.100000 28.08600
13751 SI 13751 SI SI1 13751 1.100000 28.08600
13752 SI 13752 SI SI1 13752 1.100000 28.08600
13753 SI 13753 SI SI1 13753 1.100000 28.08600
13754 SI 13754 SI SI1 13754 1.100000 28.08600
13755 SI 13755 SI SI1 13755 1.100000 28.08600
13756 SI 13756 SI SI1 13756 1.100000 28.08600
13757 SI 13757 SI SI1 13757 1.100000 28.08600
13758 SI 13758 SI SI1 13758 1.100000 28.08600
13759 SI 13759 SI SI1 13759 1.100000 28.08600
13760 SI 13760 SI SI1 13760 1.100000 28.08600
13761 SI 13761 SI SI1 13761 1.100000 28.08600
13762 SI 13762 SI SI1 13762 1.100000 28.08600
13763 SI 13763 SI SI1 13763 1.100000 28.08600
13764 SI 13764 SI SI1 13764 1.100000 28.08600
13765 SI 13765 SI SI1 13765 1.100000 28.08600
13766 SI 13766 SI SI1 13766 1.100000 28.08600
13767 SI 13767 SI SI1 13767 1.100000 28.08600
13768 SI 13768 SI SI1 13768 1.100000 28.08600
13769 SI 13769 SI SI1 13769 1.100000 28.08600
13770 SI 13770 SI SI1 13770 1.100000 28.08600
13771 SI 13771 SI SI1 13771 1.100000 28.08600
13772 SI 13772 SI SI1 13772 1.100000 28.08600
13773 SI 13773 SI SI1 13773 1.100000 28.08600
13774 SI 13774 SI SI1 13774 1.100000 28.08600
13775 SI 13775 SI SI1 13775 1.100000 28.08600
13776 SI 13776 SI SI1 13776 1.100000 28.08600
13777 SI 13777 SI SI1 13777 1.100000 28.08600
13778 SI 13778 SI SI1 13778 1.100000 28.08600
13779 SI 13779 SI SI1 13779 1.100000 28.08600
13780 SI 13780 SI SI1 13780 1.100000 28.08600
13781 SI 13781 SI SI1 13781 1.100000 28.08600
13782 SI 13782 SI SI1 13782 1.100000 28.08600
13783 SI 13783 SI SI1 13783 1.100000 28.08600
13784 SI 13784 SI SI1 13784 1.100000 28.08600
13785 SI 13785 SI SI1 13785 1.100000 28.08600
13786 SI 13786 SI SI1 13786 1.100000 28.08600
13787 SI 13787 SI SI1 13787 1.100000 28.08600
13788 SI 13788 SI SI1 13788 1.100000 28.08600
13789 SI 13789 SI SI1 13789 1.100000 28.08600
13790 SI 13790 SI SI1 13790 1.100000 28.08600
13791 SI 13791 SI SI1 13791 1.100000 28.08600
13792 SI 13792 SI SI1 13792 1.100000 28.08600
13793 SI 13793 SI SI1 13793 1.100000 28.08600
13794 SI 13794 SI SI1 13794 1.100000 28.08600
13795 SI 13795 SI SI1 13795 1.100000 28.08600
13796 SI 13796 SI SI1 13796 1.100000 28.08600
13797 SI 13797 SI SI1 13797 1.100000 28.08600
13798 SI 13798 SI SI1 13798 1.100000 28.08600
13799 SI 13799 SI SI1 13799 1.100000 28.08600
13800 SI 13800 SI SI1 13800 1.100000 28.08600
13801 SI 13801 SI SI1 13801 1.100000 28.08600
13802 SI 13802 SI SI1 13802 1.100000 28.08600
13803 SI 13803 SI SI1 13803 1.100000 28.08600
13804 SI 13804 SI SI1 13804 1.100000 28.08600
13805 SI 13805 SI SI1 13805 1.100000 28.08600
13806 SI 13806 SI SI1 13806 1.100000 28.08600
13807 SI 13807 SI SI1 13807 1.100000 28.08600
13808 SI 13808 SI SI1 13808 1.100000 28.08600
13809 SI 13809 SI SI1 13809 1.100000 28.08600
13810 SI 13810 SI SI1 13810 1.100000 28.08600
13811 SI 13811 SI SI1 13811 1.100000 28.08600
13812 SI 13812 SI SI1 13812 1.100000 28.08600
13813 SI 13813 SI SI1 13813 1.100000 28.08600
13814 SI 13814 SI SI1 13814 1.100000 28.08600
13815 SI 13815 SI SI1 13815 1.100000 28.08600
13816 SI 13816 SI SI1 13816 1.100000 28.08600
13817 SI 13817 SI SI1 13817 1.100000 28.08600
13818 SI 13818 SI SI1 13818 1.100000 28.08600
13819 SI 13819 SI SI1 13819 1.100000 28.08600
13820 SI 13820 SI SI1 13820 1.100000 28.08600
13821 SI 13821 SI SI1 13821 1.100000 28.08600
13822 SI 13822 SI SI1 13822 1.100000 28.08600
13823 SI 13823 SI SI1 13823 1.100000 28.08600
13824 SI 13824 SI SI1 13824 1.100000 28.08600
13825 SI 13825 SI SI1 13825 1.100000 28.08600
13826 SI 13826 SI SI1 13826 1.100000 28.08600
13827 SI 13827 SI SI1 13827 1.100000 28.08600
13828 SI 13828 SI SI1 13828 1.100000 28.08600
13829 SI 13829 SI SI1 13829 1.100000 28.08600
13830 SI 13830 SI SI1 13830 1.100000 28.08600
13831 SI 13831 SI SI1 13831 1.100000 28.08600
13832 SI 13832 SI SI1 13832 1.100000 28.08600
13833 SI 13833 SI SI1 13833 1.100000 28.08600
13834 SI 13834 SI SI1 13834 1.100000 28.08600
13835 SI 13835 SI SI1 13835 1.100000 28.08600
13836 SI 13836 SI SI1 13836 1.100000 28.08600
13837 SI 13837 SI SI1 13837 1.100000 28.08600
13838 SI 13838 SI SI1 13838 1.100000 28.08600
13839 SI 13839 SI SI1 13839 1.100000 28.08600
13840 SI 13840 SI SI1 13840 1.100000 28.08600
13841 SI 13841 SI SI1 13841 1.100000 28.08600
13842 SI 13842 SI SI1 13842 1.100000 28.08600
13843 SI 13843 SI SI1 13843 1.100000 28.08600
13844 SI 13844 SI SI1 13844 1.100000 28.08600
13845 SI 13845 SI SI1 13845 1.100000 28.08600
13846 SI 13846 SI SI1 13846 1.100000 28.08600
13847 SI 13847 SI SI1 13847 1.100000 28.08600
13848 SI 13848 SI SI1 13848 1.100000 28.08600
13849 SI 13849 SI SI1 13849 1.100000 28.08600
13850 SI 13850 SI SI1 13850 1.100000 28.08600
13851 SI 13851 SI SI1 13851 1.100000 28.08600
13852 SI 13852 SI SI1 13852 1.100000 28.08600
13853 SI 13853 SI SI1 13853 1.100000 28.08600
13854 SI 13854 SI SI1 13854 1.100000 28.08600
13855 SI 13855 SI SI1 13855 1.100000 28.08600
13856 SI 13856 SI SI1 13856 1.100000 28.08600
13857 SI 13857 SI SI1 13857 1.100000 28.08600
13858 SI 13858 SI SI1 13858 1.100000 28.08600
13859 SI 13859 SI SI1 13859 1.100000 28.08600
13860 SI 13860 SI SI1 13860 1.100000 28.08600
13861 SI 13861 SI SI1 13861 1.100000 28.08600
13862 SI 13862 SI SI1 13862 1.100000 28.08600
13863 SI 13863 SI SI1 13863 1.100000 28.08600
13864 SI 13864 SI SI1 13864 1.100000 28.08600
13865 SI 13865 SI SI1 13865 1.100000 28.08600
13866 SI 13866 SI SI1 13866 1.100000 28.08600
13867 SI 13867 SI SI1 13867 1.100000 28.08600
13868 SI 13868 SI SI1 13868 1.100000 28.08600
13869 SI 13869 SI SI1 13869 1.100000 28.08600
13870 SI 13870 SI SI1 13870 1.100000 28.08600
13871 SI 13871 SI SI1 13871 1.100000 28.08600
13872 SI 13872 SI SI1 13872 1.100000 28.08600
13873 SI 13873 SI SI1 13873 1.100000 28.08600
13874 SI 13874 SI SI1 13874 1.100000 28.08600
13875 SI 13875 SI SI1 13875 1.100000 28.08600
13876 SI 13876 SI SI1 13876 1.100000 28.08600
13877 SI 13877 SI SI1 13877 1.100000 28.08600
13878 SI 13878 SI SI1 13878 1.100000 28.08600
13879 SI 13879 SI SI1 13879 1.100000 28.08600
13880 SI 13880 SI SI1 13880 1.100000 28.08600
13881 SI 13881 SI SI1 13881 1.100000 28.08600
13882 SI 13882 SI SI1 13882 1.100000 28.08600
13883 SI 13883 SI SI1 13883 1.100000 28.08600
13884 SI 13884 SI SI1 13884 1.100000 28.08600
13885 SI 13885 SI SI1 13885 1.100000 28.08600
13886 SI 13886 SI SI1 13886 1.100000 28.08600
13887 SI 13887 SI SI1 13887 1.100000 28.08600
13888 SI 13888 SI SI1 13888 1.100000 28.08600
13889 SI 13889 SI SI1 13889 1.100000 28.08600
13890 SI 13890 SI SI1 13890 1.100000 28.08600
13891 SI 13891 SI SI1 13891 1.100000 28.08600
13892 SI 13892 SI SI1 13892 1.100000 28.08600
13893 SI 13893 SI SI1 13893 1.100000 28.08600
13894 SI 13894 SI SI1 13894 1.100000 28.08600
13895 SI 13895 SI SI1 13895 1.100000 28.08600
13896 SI 13896 SI SI1 13896 1.100000 28.08600
13897 SI 13897 SI SI1 13897 1.100000 28.08600
13898 SI 13898 SI SI1 13898 1.100000 28.08600
13899 SI 13899 SI SI1 13899 1.100000 28.08600
13900 SI 13900 SI SI1 13900 1.100000 28.08600
13901 SI 13901 SI SI1 13901 1.100000 28.08600
13902 SI 13902 SI SI1 13902 1.100000 28.08600
13903 SI 13903 SI SI1 13903 1.100000 28.08600
13904 SI 13904 SI SI1 13904 1.100000 28.08600
13905 SI 13905 SI SI1 13905 1.100000 28.08600
13906 SI 13906 SI SI1 13906 1.100000 28.08600
13907 SI 13907 SI SI1 13907 1.100000 28.08600
13908 SI 13908 SI SI1 13908 1.100000 28.08600
13909 SI 13909 SI SI1 13909 1.100000 28.08600
13910 SI 13910 SI SI1 13910 1.100000 28.08600
13911 SI 13911 SI SI1 13911 1.100000 28.08600
13912 SI 13912 SI SI1 13912 1.100000 28.08600
13913 SI 13913 SI SI1 13913 1.100000 28.08600
13914 SI 13914 SI SI1 13914 1.100000 28.08600
13915 SI 13915 SI SI1 13915 1.100000 28.08600
13916 SI 13916 SI SI1 13916 1.100000 28.08600
13917 SI 13917 SI SI1 13917 1.100000 28.08600
13918 SI 13918 SI SI1 13918 1.100000 28.08600
13919 SI 13919 SI SI1 13919 1.100000 28.08600
13920 SI 13920 SI SI1 13920 1.100000 28.08600
13921 SI 13921 SI SI1 13921 1.100000 28.08600
13922 SI 13922 SI SI1 13922 1.100000 28.08600
13923 SI 13923 SI SI1 13923 1.100000 28.08600
13924 SI 13924 SI SI1 13924 1.100000 28.08600
13925 SI 13925 SI SI1 13925 1.100000 28.08600
13926 SI 13926 SI SI1 13926 1.100000 28.08600
13927 SI 13927 SI SI1 13927 1.100000 28.08600
13928 SI 13928 SI SI1 13928 1.100000 28.08600
13929 SI 13929 SI SI1 13929 1.100000 28.08600
13930 SI 13930 SI SI1 13930 1.100000 28.08600
13931 SI 13931 SI SI1 13931 1.100000 28.08600
13932 SI 13932 SI SI1 13932 1.100000 28.08600
13933 SI 13933 SI SI1 13933 1.100000 28.08600
13934 SI 13934 SI SI1 13934 1.100000 28.08600
13935 SI 13935 SI SI1 13935 1.100000 28.08600
13936 SI 13936 SI SI1 13936 1.100000 28.08600
13937 SI 13937 SI SI1 13937 1.100000 28.08600
13938 SI 13938 SI SI1 13938 1.100000 28.08600
13939 SI 13939 SI SI1 13939 1.100000 28.08600
13940 SI 13940 SI SI1 13940 1.100000 28.08600
13941 SI 13941 SI SI1 13941 1.100000 28.08600
13942 SI 13942 SI SI1 13942 1.100000 28.08600
13943 SI 13943 SI SI1 13943 1.100000 28.08600
13944 SI 13944 SI SI1 13944 1.100000 28.08600
13945 SI 13945 SI SI1 13945 1.100000 28.08600
13946 SI 13946 SI SI1 13946 1.100000 28.08600
13947 SI 13947 SI SI1 13947 1.100000 28.08600
13948 SI 13948 SI SI1 13948 1.100000 28.08600
13949 SI 13949 SI SI1 13949 1.100000 28.08600
13950 SI 13950 SI SI1 13950 1.100000 28.08600
13951 SI 13951 SI SI1 13951 1.100000 28.08600
13952 SI 13952 SI SI1 13952 1.100000 28.08600
13953 SI 13953 SI SI1 13953 1.100000 28.08600
13954 SI 13954 SI SI1 13954 1.100000 28.08600
13955 SI 13955 SI SI1 13955 1.100000 28.08600
13956 SI 13956 SI SI1 13956 1.100000 28.08600
13957 SI 13957 SI SI1 13957 1.100000 28.08600
13958 SI 13958 SI SI1 13958 1.100000 28.08600
13959 SI 13959 SI SI1 13959 1.100000 28.08600
13960 SI 13960 SI SI1 13960 1.100000 28.08600
13961 SI 13961 SI SI1 13961 1.100000 28.08600
13962 SI 13962 SI SI1 13962 1.100000 28.08600
13963 SI 13963 SI SI1 13963 1.100000 28.08600
13964 SI 13964 SI SI1 13964 1.100000 28.08600
13965 SI 13965 SI SI1 13965 1.100000 28.08600
13966 SI 13966 SI SI1 13966 1.100000 28.08600
13967 SI 13967 SI SI1 13967 1.100000 28.08600
13968 SI 13968 SI SI1 13968 1.100000 28.08600
13969 SI 13969 SI SI1 13969 1.100000 28.08600
13970 SI 13970 SI SI1 13970 1.100000 28.08600
13971 SI 13971 SI SI1 13971 1.100000 28.08600
13972 SI 13972 SI SI1 13972 1.100000 28.08600
13973 SI 13973 SI SI1 13973 1.100000 28.08600
13974 SI 13974 SI SI1 13974 1.100000 28.08600
13975 SI 13975 SI SI1 13975 1.100000 28.08600
13976 SI 13976 SI SI1 13976 1.100000 28.08600
13977 SI 13977 SI SI1 13977 1.100000 28.08600
13978 SI 13978 SI SI1 13978 1.100000 28.08600
13979 SI 13979 SI SI1 13979 1.100000 28.08600
13980 SI 13980 SI SI1 13980 1.100000 28.08600
13981 SI 13981 SI SI1 13981 1.100000 28.08600
13982 SI 13982 SI SI1 13982 1.100000 28.08600
13983 SI 13983 SI SI1 13983 1.100000 28.08600
13984 SI 13984 SI SI1 13984 1.100000 28.08600
13985 SI 13985 SI SI1 13985 1.100000 28.08600
13986 SI 13986 SI SI1 13986 1.100000 28.08600
13987 SI 13987 SI SI1 13987 1.100000 28.08600
13988 SI 13988 SI SI1 13988 1.100000 28.08600
13989 SI 13989 SI SI1 13989 1.100000 28.08600
13990 SI 13990 SI SI1 13990 1.100000 28.08600
13991 SI 13991 SI SI1 13991 1.100000 28.08600
13992 SI 13992 SI SI1 13992 1.100000 28.08600
13993 SI 13993 SI SI1 13993 1.100000 28.08600
13994 SI 13994 SI SI1 13994 1.100000 28.08600
13995 SI 13995 SI SI1 13995 1.100000 28.08600
13996 SI 13996 SI SI1 13996 1.100000 28.08600
13997 SI 13997 SI SI1 13997 1.100000 28.08600
13998 SI 13998 SI SI1 13998 1.100000 28.08600
13999 SI 13999 SI SI1 13999 1.100000 28.08600
14000 SI 14000 SI SI1 14000 1.100000 28.08600
14001 SI 14001 SI SI1 14001 1.100000 28.08600
14002 SI 14002 SI SI1 14002 1.100000 28.08600
14003 SI 14003 SI SI1 14003 1.100000 28.08600
14004 SI 14004 SI SI1 14004 1.100000 28.08600
14005 SI 14005 SI SI1 14005 1.100000 28.08600
14006 SI 14006 SI SI1 14006 1.100000 28.08600
14007 SI 14007 SI SI1 14007 1.100000 28.08600
14008 SI 14008 SI SI1 14008 1.100000 28.08600
14009 SI 14009 SI SI1 14009 1.100000 28.08600
14010 SI 14010 SI SI1 14010 1.100000 28.08600
14011 SI 14011 SI SI1 14011 1.100000 28.08600
14012 SI 14012 SI SI1 14012 1.100000 28.08600
14013 SI 14013 SI SI1 14013 1.100000 28.08600
14014 SI 14014 SI SI1 14014 1.100000 28.08600
14015 SI 14015 SI SI1 14015 1.100000 28.08600
14016 SI 14016 SI SI1 14016 1.100000 28.08600
14017 SI 14017 SI SI1 14017 1.100000 28.08600
14018 SI 14018 SI SI1 14018 1.100000 28.08600
14019 SI 14019 SI SI1 14019 1.100000 28.08600
14020 SI 14020 SI SI1 14020 1.100000 28.08600
14021 SI 14021 SI SI1 14021 1.100000 28.08600
14022 SI 14022 SI SI1 14022 1.100000 28.08600
14023 SI 14023 SI SI1 14023 1.100000 28.08600
14024 SI 14024 SI SI1 14024 1.100000 28.08600
14025 SI 14025 SI SI1 14025 1.100000 28.08600
14026 SI 14026 SI SI1 14026 1.100000 28.08600
14027 SI 14027 SI SI1 14027 1.100000 28.08600
14028 SI 14028 SI SI1 14028 1.100000 28.08600
14029 SI 14029 SI SI1 14029 1.100000 28.08600
14030 SI 14030 SI SI1 14030 1.100000 28.08600
14031 SI 14031 SI SI1 14031 1.100000 28.08600
14032 SI 14032 SI SI1 14032 1.100000 28.08600
14033 SI 14033 SI SI1 14033 1.100000 28.08600
14034 SI 14034 SI SI1 14034 1.100000 28.08600
14035 SI 14035 SI SI1 14035 1.100000 28.08600
14036 SI 14036 SI SI1 14036 1.100000 28.08600
14037 SI 14037 SI SI1 14037 1.100000 28.08600
14038 SI 14038 SI SI1 14038 1.100000 28.08600
14039 SI 14039 SI SI1 14039 1.100000 28.08600
14040 SI 14040 SI SI1 14040 1.100000 28.08600
14041 SI 14041 SI SI1 14041 1.100000 28.08600
14042 SI 14042 SI SI1 14042 1.100000 28.08600
14043 SI 14043 SI SI1 14043 1.100000 28.08600
14044 SI 14044 SI SI1 14044 1.100000 28.08600
14045 SI 14045 SI SI1 14045 1.100000 28.08600
14046 SI 14046 SI SI1 14046 1.100000 28.08600
14047 SI 14047 SI SI1 14047 1.100000 28.08600
14048 SI 14048 SI SI1 14048 1.100000 28.08600
14049 SI 14049 SI SI1 14049 1.100000 28.08600
14050 SI 14050 SI SI1 14050 1.100000 28.08600
14051 SI 14051 SI SI1 14051 1.100000 28.08600
14052 SI 14052 SI SI1 14052 1.100000 28.08600
14053 SI 14053 SI SI1 14053 1.100000 28.08600
14054 SI 14054 SI SI1 14054 1.100000 28.08600
14055 SI 14055 SI SI1 14055 1.100000 28.08600
14056 SI 14056 SI SI1 14056 1.100000 28.08600
14057 SI 14057 SI SI1 14057 1.100000 28.08600
14058 SI 14058 SI SI1 14058 1.100000 28.08600
14059 SI 14059 SI SI1 14059 1.100000 28.08600
14060 SI 14060 SI SI1 14060 1.100000 28.08600
14061 SI 14061 SI SI1 14061 1.100000 28.08600
14062 SI 14062 SI SI1 14062 1.100000 28.08600
14063 SI 14063 SI SI1 14063 1.100000 28.08600
14064 SI 14064 SI SI1 14064 1.100000 28.08600
14065 SI 14065 SI SI1 14065 1.100000 28.08600
14066 SI 14066 SI SI1 14066 1.100000 28.08600
14067 SI 14067 SI SI1 14067 1.100000 28.08600
14068 SI 14068 SI SI1 14068 1.100000 28.08600
14069 SI 14069 SI SI1 14069 1.100000 28.08600
14070 SI 14070 SI SI1 14070 1.100000 28.08600
14071 SI 14071 SI SI1 14071 1.100000 28.08600
14072 SI 14072 SI SI1 14072 1.100000 28.08600
14073 SI 14073 SI SI1 14073 1.100000 28.08600
14074 SI 14074 SI SI1 14074 1.100000 28.08600
14075 SI 14075 SI SI1 14075 1.100000 28.08600
14076 SI 14076 SI SI1 14076 1.100000 28.08600
14077 SI 14077 SI SI1 14077 1.100000 28.08600
14078 SI 14078 SI SI1 14078 1.100000 28.08600
14079 SI 14079 SI SI1 14079 1.100000 28.08600
14080 SI 14080 SI SI1 14080 1.100000 28.08600
14081 SI 14081 SI SI1 14081 1.100000 28.08600
14082 SI 14082 SI SI1 14082 1.100000 28.08600
14083 SI 14083 SI SI1 14083 1.100000 28.08600
14084 SI 14084 SI SI1 14084 1.100000 28.08600
14085 SI 14085 SI SI1 14085 1.100000 28.08600
14086 SI 14086 SI SI1 14086 1.100000 28.08600
14087 SI 14087 SI SI1 14087 1.100000 28.08600
14088 SI 14088 SI SI1 14088 1.100000 28.08600
14089 SI 14089 SI SI1 14089 1.100000 28.08600
14090 SI 14090 SI SI1 14090 1.100000 28.08600
14091 SI 14091 SI SI1 14091 1.100000 28.08600
14092 SI 14092 SI SI1 14092 1.100000 28.08600
14093 SI 14093 SI SI1 14093 1.100000 28.08600
14094 SI 14094 SI SI1 14094 1.100000 28.08600
14095 SI 14095 SI SI1 14095 1.100000 28.08600
14096 SI 14096 SI SI1 14096 1.100000 28.08600
14097 SI 14097 SI SI1 14097 1.100000 28.08600
14098 SI 14098 SI SI1 14098 1.100000 28.08600
14099 SI 14099 SI SI1 14099 1.100000 28.08600
14100 SI 14100 SI SI1 14100 1.100000 28.08600
14101 SI 14101 SI SI1 14101 1.100000 28.08600
14102 SI 14102 SI SI1 14102 1.100000 28.08600
14103 SI 14103 SI SI1 14103 1.100000 28.08600
14104 SI 14104 SI SI1 14104 1.100000 28.08600
14105 SI 14105 SI SI1 14105 1.100000 28.08600
14106 SI 14106 SI SI1 14106 1.100000 28.08600
14107 SI 14107 SI SI1 14107 1.100000 28.08600
14108 SI 14108 SI SI1 14108 1.100000 28.08600
14109 SI 14109 SI SI1 14109 1.100000 28.08600
14110 SI 14110 SI SI1 14110 1.100000 28.08600
14111 SI 14111 SI SI1 14111 1.100000 28.08600
14112 SI 14112 SI SI1 14112 1.100000 28.08600
14113 SI 14113 SI SI1 14113 1.100000 28.08600
14114 SI 14114 SI SI1 14114 1.100000 28.08600
14115 SI 14115 SI SI1 14115 1.100000 28.08600
14116 SI 14116 SI SI1 14116 1.100000 28.08600
14117 SI 14117 SI SI1 14117 1.100000 28.08600
14118 SI 14118 SI SI1 14118 1.100000 28.08600
14119 SI 14119 SI SI1 14119 1.100000 28.08600
14120 SI 14120 SI SI1 14120 1.100000 28.08600
14121 SI 14121 SI SI1 14121 1.100000 28.08600
14122 SI 14122 SI SI1 14122 1.100000 28.08600
14123 SI 14123 SI SI1 14123 1.100000 28.08600
14124 SI 14124 SI SI1 14124 1.100000 28.08600
14125 SI 14125 SI SI1 14125 1.100000 28.08600
14126 SI 14126 SI SI1 14126 1.100000 28.08600
14127 SI 14127 SI SI1 14127 1.100000 28.08600
14128 SI 14128 SI SI1 14128 1.100000 28.08600
14129 SI 14129 SI SI1 14129 1.100000 28.08600
14130 SI 14130 SI SI1 14130 1.100000 28.08600
14131 SI 14131 SI SI1 14131 1.100000 28.08600
14132 SI 14132 SI SI1 14132 1.100000 28.08600
14133 SI 14133 SI SI1 14133 1.100000 28.08600
14134 SI 14134 SI SI1 14134 1.100000 28.08600
14135 SI 14135 SI SI1 14135 1.100000 28.08600
14136 SI 14136 SI SI1 14136 1.100000 28.08600
14137 SI 14137 SI SI1 14137 1.100000 28.08600
14138 SI 14138 SI SI1 14138 1.100000 28.08600
14139 SI 14139 SI SI1 14139 1.100000 28.08600
14140 SI 14140 SI SI1 14140 1.100000 28.08600
14141 SI 14141 SI SI1 14141 1.100000 28.08600
14142 SI 14142 SI SI1 14142 1.100000 28.08600
14143 SI 14143 SI SI1 14143 1.100000 28.08600
14144 SI 14144 SI SI1 14144 1.100000 28.08600
14145 SI 14145 SI SI1 14145 1.100000 28.08600
14146 SI 14146 SI SI1 14146 1.100000 28.08600
14147 SI 14147 SI SI1 14147 1.100000 28.08600
14148 SI 14148 SI SI1 14148 1.100000 28.08600
14149 SI 14149 SI SI1 14149 1.100000 28.08600
14150 SI 14150 SI SI1 14150 1.100000 28.08600
14151 SI 14151 SI SI1 14151 1.100000 28.08600
14152 SI 14152 SI SI1 14152 1.100000 28.08600
14153 SI 14153 SI SI1 14153 1.100000 28.08600
14154 SI 14154 SI SI1 14154 1.100000 28.08600
14155 SI 14155 SI SI1 14155 1.100000 28.08600
14156 SI 14156 SI SI1 14156 1.100000 28.08600
14157 SI 14157 SI SI1 14157 1.100000 28.08600
14158 SI 14158 SI SI1 14158 1.100000 28.08600
14159 SI 14159 SI SI1 14159 1.100000 28.08600
14160 SI 14160 SI SI1 14160 1.100000 28.08600
14161 SI 14161 SI SI1 14161 1.100000 28.08600
14162 SI 14162 SI SI1 14162 1.100000 28.08600
14163 SI 14163 SI SI1 14163 1.100000 28.08600
14164 SI 14164 SI SI1 14164 1.100000 28.08600
14165 SI 14165 SI SI1 14165 1.100000 28.08600
14166 SI 14166 SI SI1 14166 1.100000 28.08600
14167 SI 14167 SI SI1 14167 1.100000 28.08600
14168 SI 14168 SI SI1 14168 1.100000 28.08600
14169 SI 14169 SI SI1 14169 1.100000 28.08600
14170 SI 14170 SI SI1 14170 1.100000 28.08600
14171 SI 14171 SI SI1 14171 1.100000 28.08600
14172 SI 14172 SI SI1 14172 1.100000 28.08600
14173 SI 14173 SI SI1 14173 1.100000 28.08600
14174 SI 14174 SI SI1 14174 1.100000 28.08600
14175 SI 14175 SI SI1 14175 1.100000 28.08600
14176 SI 14176 SI SI1 14176 1.100000 28.08600
14177 SI 14177 SI SI1 14177 1.100000 28.08600
14178 SI 14178 SI SI1 14178 1.100000 28.08600
14179 SI 14179 SI SI1 14179 1.100000 28.08600
14180 SI 14180 SI SI1 14180 1.100000 28.08600
14181 SI 14181 SI SI1 14181 1.100000 28.08600
14182 SI 14182 SI SI1 14182 1.100000 28.08600
14183 SI 14183 SI SI1 14183 1.100000 28.08600
14184 SI 14184 SI SI1 14184 1.100000 28.08600
14185 SI 14185 SI SI1 14185 1.100000 28.08600
14186 SI 14186 SI SI1 14186 1.100000 28.08600
14187 SI 14187 SI SI1 14187 1.100000 28.08600
14188 SI 14188 SI SI1 14188 1.100000 28.08600
14189 SI 14189 SI SI1 14189 1.100000 28.08600
14190 SI 14190 SI SI1 14190 1.100000 28.08600
14191 SI 14191 SI SI1 14191 1.100000 28.08600
14192 SI 14192 SI SI1 14192 1.100000 28.08600
14193 SI 14193 SI SI1 14193 1.100000 28.08600
14194 SI 14194 SI SI1 14194 1.100000 28.08600
14195 SI 14195 SI SI1 14195 1.100000 28.08600
14196 SI 14196 SI SI1 14196 1.100000 28.08600
14197 SI 14197 SI SI1 14197 1.100000 28.08600
14198 SI 14198 SI SI1 14198 1.100000 28.08600
14199 SI 14199 SI SI1 14199 1.100000 28.08600
14200 SI 14200 SI SI1 14200 1.100000 28.08600
14201 SI 14201 SI SI1 14201 1.100000 28.08600
14202 SI 14202 SI SI1 14202 1.100000 28.08600
14203 SI 14203 SI SI1 14203 1.100000 28.08600
14204 SI 14204 SI SI1 14204 1.100000 28.08600
14205 SI 14205 SI SI1 14205 1.100000 28.08600
14206 SI 14206 SI SI1 14206 1.100000 28.08600
14207 SI 14207 SI SI1 14207 1.100000 28.08600
14208 SI 14208 SI SI1 14208 1.100000 28.08600
14209 SI 14209 SI SI1 14209 1.100000 28.08600
14210 SI 14210 SI SI1 14210 1.100000 28.08600
14211 SI 14211 SI SI1 14211 1.100000 28.08600
14212 SI 14212 SI SI1 14212 1.100000 28.08600
14213 SI 14213 SI SI1 14213 1.100000 28.08600
14214 SI 14214 SI SI1 14214 1.100000 28.08600
14215 SI 14215 SI SI1 14215 1.100000 28.08600
14216 SI 14216 SI SI1 14216 1.100000 28.08600
14217 SI 14217 SI SI1 14217 1.100000 28.08600
14218 SI 14218 SI SI1 14218 1.100000 28.08600
14219 SI 14219 SI SI1 14219 1.100000 28.08600
14220 SI 14220 SI SI1 14220 1.100000 28.08600
14221 SI 14221 SI SI1 14221 1.100000 28.08600
14222 SI 14222 SI SI1 14222 1.100000 28.08600
14223 SI 14223 SI SI1 14223 1.100000 28.08600
14224 SI 14224 SI SI1 14224 1.100000 28.08600
14225 SI 14225 SI SI1 14225 1.100000 28.08600
14226 SI 14226 SI SI1 14226 1.100000 28.08600
14227 SI 14227 SI SI1 14227 1.100000 28.08600
14228 SI 14228 SI SI1 14228 1.100000 28.08600
14229 SI 14229 SI SI1 14229 1.100000 28.08600
14230 SI 14230 SI SI1 14230 1.100000 28.08600
14231 SI 14231 SI SI1 14231 1.100000 28.08600
14232 SI 14232 SI SI1 14232 1.100000 28.08600
14233 SI 14233 SI SI1 14233 1.100000 28.08600
14234 SI 14234 SI SI1 14234 1.100000 28.08600
14235 SI 14235 SI SI1 14235 1.100000 28.08600
14236 SI 14236 SI SI1 14236 1.100000 28.08600
14237 SI 14237 SI SI1 14237 1.100000 28.08600
14238 SI 14238 SI SI1 14238 1.100000 28.08600
14239 SI 14239 SI SI1 14239 1.100000 28.08600
14240 SI 14240 SI SI1 14240 1.100000 28.08600
14241 SI 14241 SI SI1 14241 1.100000 28.08600
14242 SI 14242 SI SI1 14242 1.100000 28.08600
14243 SI 14243 SI SI1 14243 1.100000 28.08600
14244 SI 14244 SI SI1 14244 1.100000 28.08600
14245 SI 14245 SI SI1 14245 1.100000 28.08600
14246 SI 14246 SI SI1 14246 1.100000 28.08600
14247 SI 14247 SI SI1 14247 1.100000 28.08600
14248 SI 14248 SI SI1 14248 1.100000 28.08600
14249 SI 14249 SI SI1 14249 1.100000 28.08600
14250 SI 14250 SI SI1 14250 1.100000 28.08600
14251 SI 14251 SI SI1 14251 1.100000 28.08600
14252 SI 14252 SI SI1 14252 1.100000 28.08600
14253 SI 14253 SI SI1 14253 1.100000 28.08600
14254 SI 14254 SI SI1 14254 1.100000 28.08600
14255 SI 14255 SI SI1 14255 1.100000 28.08600
14256 SI 14256 SI SI1 14256 1.100000 28.08600
14257 SI 14257 SI SI1 14257 1.100000 28.08600
14258 SI 14258 SI SI1 14258 1.100000 28.08600
14259 SI 14259 SI SI1 14259 1.100000 28.08600
14260 SI 14260 SI SI1 14260 1.100000 28.08600
14261 SI 14261 SI SI1 14261 1.100000 28.08600
14262 SI 14262 SI SI1 14262 1.100000 28.08600
14263 SI 14263 SI SI1 14263 1.100000 28.08600
14264 SI 14264 SI SI1 14264 1.100000 28.08600
14265 SI 14265 SI SI1 14265 1.100000 28.08600
14266 SI 14266 SI SI1 14266 1.100000 28.08600
14267 SI 14267 SI SI1 14267 1.100000 28.08600
14268 SI 14268 SI SI1 14268 1.100000 28.08600
14269 SI 14269 SI SI1 14269 1.100000 28.08600
14270 SI 14270 SI SI1 14270 1.100000 28.08600
14271 SI 14271 SI SI1 14271 1.100000 28.08600
14272 SI 14272 SI SI1 14272 1.100000 28.08600
14273 SI 14273 SI SI1 14273 1.100000 28.08600
14274 SI 14274 SI SI1 14274 1.100000 28.08600
14275 SI 14275 SI SI1 14275 1.100000 28.08600
14276 SI 14276 SI SI1 14276 1.100000 28.08600
14277 SI 14277 SI SI1 14277 1.100000 28.08600
14278 SI 14278 SI SI1 14278 1.100000 28.08600
14279 SI 14279 SI SI1 14279 1.100000 28.08600
14280 SI 14280 SI SI1 14280 1.100000 28.08600
14281 SI 14281 SI SI1 14281 1.100000 28.08600
14282 SI 14282 SI SI1 14282 1.100000 28.08600
14283 SI 14283 SI SI1 14283 1.100000 28.08600
14284 SI 14284 SI SI1 14284 1.100000 28.08600
14285 SI 14285 SI SI1 14285 1.100000 28.08600
14286 SI 14286 SI SI1 14286 1.100000 28.08600
14287 SI 14287 SI SI1 14287 1.100000 28.08600
14288 SI 14288 SI SI1 14288 1.100000 28.08600
14289 SI 14289 SI SI1 14289 1.100000 28.08600
14290 SI 14290 SI SI1 14290 1.100000 28.08600
14291 SI 14291 SI SI1 14291 1.100000 28.08600
14292 SI 14292 SI SI1 14292 1.100000 28.08600
14293 SI 14293 SI SI1 14293 1.100000 28.08600
14294 SI 14294 SI SI1 14294 1.100000 28.08600
14295 SI 14295 SI SI1 14295 1.100000 28.08600
14296 SI 14296 SI SI1 14296 1.100000 28.08600
14297 SI 14297 SI SI1 14297 1.100000 28.08600
14298 SI 14298 SI SI1 14298 1.100000 28.08600
14299 SI 14299 SI SI1 14299 1.100000 28.08600
14300 SI 14300 SI SI1 14300 1.100000 28.08600
14301 SI 14301 SI SI1 14301 1.100000 28.08600
14302 SI 14302 SI SI1 14302 1.100000 28.08600
14303 SI 14303 SI SI1 14303 1.100000 28.08600
14304 SI 14304 SI SI1 14304 1.100000 28.08600
14305 SI 14305 SI SI1 14305 1.100000 28.08600
14306 SI 14306 SI SI1 14306 1.100000 28.08600
14307 SI 14307 SI SI1 14307 1.100000 28.08600
14308 SI 14308 SI SI1 14308 1.100000 28.08600
14309 SI 14309 SI SI1 14309 1.100000 28.08600
14310 SI 14310 SI SI1 14310 1.100000 28.08600
14311 SI 14311 SI SI1 14311 1.100000 28.08600
14312 SI 14312 SI SI1 14312 1.100000 28.08600
14313 SI 14313 SI SI1 14313 1.100000 28.08600
14314 SI 14314 SI SI1 14314 1.100000 28.08600
14315 SI 14315 SI SI1 14315 1.100000 28.08600
14316 SI 14316 SI SI1 14316 1.100000 28.08600
14317 SI 14317 SI SI1 14317 1.100000 28.08600
14318 SI 14318 SI SI1 14318 1.100000 28.08600
14319 SI 14319 SI SI1 14319 1.100000 28.08600
14320 SI 14320 SI SI1 14320 1.100000 28.08600
14321 SI 14321 SI SI1 14321 1.100000 28.08600
14322 SI 14322 SI SI1 14322 1.100000 28.08600
14323 SI 14323 SI SI1 14323 1.100000 28.08600
14324 SI 14324 SI SI1 14324 1.100000 28.08600
14325 SI 14325 SI SI1 14325 1.100000 28.08600
14326 SI 14326 SI SI1 14326 1.100000 28.08600
14327 SI 14327 SI SI1 14327 1.100000 28.08600
14328 SI 14328 SI SI1 14328 1.100000 28.08600
14329 SI 14329 SI SI1 14329 1.100000 28.08600
14330 SI 14330 SI SI1 14330 1.100000 28.08600
14331 SI 14331 SI SI1 14331 1.100000 28.08600
14332 SI 14332 SI SI1 14332 1.100000 28.08600
14333 SI 14333 SI SI1 14333 1.100000 28.08600
14334 SI 14334 SI SI1 14334 1.100000 28.08600
14335 SI 14335 SI SI1 14335 1.100000 28.08600
14336 SI 14336 SI SI1 14336 1.100000 28.08600
14337 SI 14337 SI SI1 14337 1.100000 28.08600
14338 SI 14338 SI SI1 14338 1.100000 28.08600
14339 SI 14339 SI SI1 14339 1.100000 28.08600
14340 SI 14340 SI SI1 14340 1.100000 28.08600
14341 SI 14341 SI SI1 14341 1.100000 28.08600
14342 SI 14342 SI SI1 14342 1.100000 28.08600
14343 SI 14343 SI SI1 14343 1.100000 28.08600
14344 SI 14344 SI SI1 14344 1.100000 28.08600
14345 SI 14345 SI SI1 14345 1.100000 28.08600
14346 SI 14346 SI SI1 14346 1.100000 28.08600
14347 SI 14347 SI SI1 14347 1.100000 28.08600
14348 SI 14348 SI SI1 14348 1.100000 28.08600
14349 SI 14349 SI SI1 14349 1.100000 28.08600
14350 SI 14350 SI SI1 14350 1.100000 28.08600
14351 SI 14351 SI SI1 14351 1.100000 28.08600
14352 SI 14352 SI SI1 14352 1.100000 28.08600
14353 SI 14353 SI SI1 14353 1.100000 28.08600
14354 SI 14354 SI SI1 14354 1.100000 28.08600
14355 SI 14355 SI SI1 14355 1.100000 28.08600
14356 SI 14356 SI SI1 14356 1.100000 28.08600
14357 SI 14357 SI SI1 14357 1.100000 28.08600
14358 SI 14358 SI SI1 14358 1.100000 28.08600
14359 SI 14359 SI SI1 14359 1.100000 28.08600
14360 SI 14360 SI SI1 14360 1.100000 28.08600
14361 SI 14361 SI SI1 14361 1.100000 28.08600
14362 SI 14362 SI SI1 14362 1.100000 28.08600
14363 SI 14363 SI SI1 14363 1.100000 28.08600
14364 SI 14364 SI SI1 14364 1.100000 28.08600
14365 SI 14365 SI SI1 14365 1.100000 28.08600
14366 SI 14366 SI SI1 14366 1.100000 28.08600
14367 SI 14367 SI SI1 14367 1.100000 28.08600
14368 SI 14368 SI SI1 14368 1.100000 28.08600
14369 SI 14369 SI SI1 14369 1.100000 28.08600
14370 SI 14370 SI SI1 14370 1.100000 28.08600
14371 SI 14371 SI SI1 14371 1.100000 28.08600
14372 SI 14372 SI SI1 14372 1.100000 28.08600
14373 SI 14373 SI SI1 14373 1.100000 28.08600
14374 SI 14374 SI SI1 14374 1.100000 28.08600
14375 SI 14375 SI SI1 14375 1.100000 28.08600
14376 SI 14376 SI SI1 14376 1.100000 28.08600
14377 SI 14377 SI SI1 14377 1.100000 28.08600
14378 SI 14378 SI SI1 14378 1.100000 28.08600
14379 SI 14379 SI SI1 14379 1.100000 28.08600
14380 SI 14380 SI SI1 14380 1.100000 28.08600
14381 SI 14381 SI SI1 14381 1.100000 28.08600
14382 SI 14382 SI SI1 14382 1.100000 28.08600
14383 SI 14383 SI SI1 14383 1.100000 28.08600
14384 SI 14384 SI SI1 14384 1.100000 28.08600
14385 SI 14385 SI SI1 14385 1.100000 28.08600
14386 SI 14386 SI SI1 14386 1.100000 28.08600
14387 SI 14387 SI SI1 14387 1.100000 28.08600
14388 SI 14388 SI SI1 14388 1.100000 28.08600
14389 SI 14389 SI SI1 14389 1.100000 28.08600
14390 SI 14390 SI SI1 14390 1.100000 28.08600
14391 SI 14391 SI SI1 14391 1.100000 28.08600
14392 SI 14392 SI SI1 14392 1.100000 28.08600
14393 SI 14393 SI SI1 14393 1.100000 28.08600
14394 SI 14394 SI SI1 14394 1.100000 28.08600
14395 SI 14395 SI SI1 14395 1.100000 28.08600
14396 SI 14396 SI SI1 14396 1.100000 28.08600
14397 SI 14397 SI SI1 14397 1.100000 28.08600
14398 SI 14398 SI SI1 14398 1.100000 28.08600
14399 SI 14399 SI SI1 14399 1.100000 28.08600
14400 SI 14400 SI SI1 14400 1.100000 28.08600
14401 SI 14401 SI SI1 14401 1.100000 28.08600
14402 SI 14402 SI SI1 14402 1.100000 28.08600
14403 SI 14403 SI SI1 14403 1.100000 28.08600
14404 SI 14404 SI SI1 14404 1.100000 28.08600
14405 SI 14405 SI SI1 14405 1.100000 28.08600
14406 SI 14406 SI SI1 14406 1.100000 28.08600
14407 SI 14407 SI SI1 14407 1.100000 28.08600
14408 SI 14408 SI SI1 14408 1.100000 28.08600
14409 SI 14409 SI SI1 14409 1.100000 28.08600
14410 SI 14410 SI SI1 14410 1.100000 28.08600
14411 SI 14411 SI SI1 14411 1.100000 28.08600
14412 SI 14412 SI SI1 14412 1.100000 28.08600
14413 SI 14413 SI SI1 14413 1.100000 28.08600
14414 SI 14414 SI SI1 14414 1.100000 28.08600
14415 SI 14415 SI SI1 14415 1.100000 28.08600
14416 SI 14416 SI SI1 14416 1.100000 28.08600
14417 SI 14417 SI SI1 14417 1.100000 28.08600
14418 SI 14418 SI SI1 14418 1.100000 28.08600
14419 SI 14419 SI SI1 14419 1.100000 28.08600
14420 SI 14420 SI SI1 14420 1.100000 28.08600
14421 SI 14421 SI SI1 14421 1.100000 28.08600
14422 SI 14422 SI SI1 14422 1.100000 28.08600
14423 SI 14423 SI SI1 14423 1.100000 28.08600
14424 SI 14424 SI SI1 14424 1.100000 28.08600
14425 SI 14425 SI SI1 14425 1.100000 28.08600
14426 SI 14426 SI SI1 14426 1.100000 28.08600
14427 SI 14427 SI SI1 14427 1.100000 28.08600
14428 SI 14428 SI SI1 14428 1.100000 28.08600
14429 SI 14429 SI SI1 14429 1.100000 28.08600
14430 SI 14430 SI SI1 14430 1.100000 28.08600
14431 SI 14431 SI SI1 14431 1.100000 28.08600
14432 SI 14432 SI SI1 14432 1.100000 28.08600
14433 SI 14433 SI SI1 14433 1.100000 28.08600
14434 SI 14434 SI SI1 14434 1.100000 28.08600
14435 SI 14435 SI SI1 14435 1.100000 28.08600
14436 SI 14436 SI SI1 14436 1.100000 28.08600
14437 SI 14437 SI SI1 14437 1.100000 28.08600
14438 SI 14438 SI SI1 14438 1.100000 28.08600
14439 SI 14439 SI SI1 14439 1.100000 28.08600
14440 SI 14440 SI SI1 14440 1.100000 28.08600
14441 SI 14441 SI SI1 14441 1.100000 28.08600
14442 SI 14442 SI SI1 14442 1.100000 28.08600
14443 SI 14443 SI SI1 14443 1.100000 28.08600
14444 SI 14444 SI SI1 14444 1.100000 28.08600
14445 SI 14445 SI SI1 14445 1.100000 28.08600
14446 SI 14446 SI SI1 14446 1.100000 28.08600
14447 SI 14447 SI SI1 14447 1.100000 28.08600
14448 SI 14448 SI SI1 14448 1.100000 28.08600
14449 SI 14449 SI SI1 14449 1.100000 28.08600
14450 SI 14450 SI SI1 14450 1.100000 28.08600
14451 SI 14451 SI SI1 14451 1.100000 28.08600
14452 SI 14452 SI SI1 14452 1.100000 28.08600
14453 SI 14453 SI SI1 14453 1.100000 28.08600
14454 SI 14454 SI SI1 14454 1.100000 28.08600
14455 SI 14455 SI SI1 14455 1.100000 28.08600
14456 SI 14456 SI SI1 14456 1.100000 28.08600
14457 SI 14457 SI SI1 14457 1.100000 28.08600
14458 SI 14458 SI SI1 14458 1.100000 28.08600
14459 SI 14459 SI SI1 14459 1.100000 28.08600
14460 SI 14460 SI SI1 14460 1.100000 28.08600
14461 SI 14461 SI SI1 14461 1.100000 28.08600
14462 SI 14462 SI SI1 14462 1.100000 28.08600
14463 SI 14463 SI SI1 14463 1.100000 28.08600
14464 SI 14464 SI SI1 14464 1.100000 28.08600
14465 SI 14465 SI SI1 14465 1.100000 28.08600
14466 SI 14466 SI SI1 14466 1.100000 28.08600
14467 SI 14467 SI SI1 14467 1.100000 28.08600
14468 SI 14468 SI SI1 14468 1.100000 28.08600
14469 SI 14469 SI SI1 14469 1.100000 28.08600
14470 SI 14470 SI SI1 14470 1.100000 28.08600
14471 SI 14471 SI SI1 14471 1.100000 28.08600
14472 SI 14472 SI SI1 14472 1.100000 28.08600
14473 SI 14473 SI SI1 14473 1.100000 28.08600
14474 SI 14474 SI SI1 14474 1.100000 28.08600
14475 SI 14475 SI SI1 14475 1.100000 28.08600
14476 SI 14476 SI SI1 14476 1.100000 28.08600
14477 SI 14477 SI SI1 14477 1.100000 28.08600
14478 SI 14478 SI SI1 14478 1.100000 28.08600
14479 SI 14479 SI SI1 14479 1.100000 28.08600
14480 SI 14480 SI SI1 14480 1.100000 28.08600
14481 SI 14481 SI SI1 14481 1.100000 28.08600
14482 SI 14482 SI SI1 14482 1.100000 28.08600
14483 SI 14483 SI SI1 14483 1.100000 28.08600
14484 SI 14484 SI SI1 14484 1.100000 28.08600
14485 SI 14485 SI SI1 14485 1.100000 28.08600
14486 SI 14486 SI SI1 14486 1.100000 28.08600
14487 SI 14487 SI SI1 14487 1.100000 28.08600
14488 SI 14488 SI SI1 14488 1.100000 28.08600
14489 SI 14489 SI SI1 14489 1.100000 28.08600
14490 SI 14490 SI SI1 14490 1.100000 28.08600
14491 SI 14491 SI SI1 14491 1.100000 28.08600
14492 SI 14492 SI SI1 14492 1.100000 28.08600
14493 SI 14493 SI SI1 14493 1.100000 28.08600
14494 SI 14494 SI SI1 14494 1.100000 28.08600
14495 SI 14495 SI SI1 14495 1.100000 28.08600
14496 SI 14496 SI SI1 14496 1.100000 28.08600
14497 SI 14497 SI SI1 14497 1.100000 28.08600
14498 SI 14498 SI SI1 14498 1.100000 28.08600
14499 SI 14499 SI SI1 14499 1.100000 28.08600
14500 SI 14500 SI SI1 14500 1.100000 28.08600
14501 SI 14501 SI SI1 14501 1.100000 28.08600
14502 SI 14502 SI SI1 14502 1.100000 28.08600
14503 SI 14503 SI SI1 14503 1.100000 28.08600
14504 SI 14504 SI SI1 14504 1.100000 28.08600
14505 SI 14505 SI SI1 14505 1.100000 28.08600
14506 SI 14506 SI SI1 14506 1.100000 28.08600
14507 SI 14507 SI SI1 14507 1.100000 28.08600
14508 SI 14508 SI SI1 14508 1.100000 28.08600
14509 SI 14509 SI SI1 14509 1.100000 28.08600
14510 SI 14510 SI SI1 14510 1.100000 28.08600
14511 SI 14511 SI SI1 14511 1.100000 28.08600
14512 SI 14512 SI SI1 14512 1.100000 28.08600
14513 SI 14513 SI SI1 14513 1.100000 28.08600
14514 SI 14514 SI SI1 14514 1.100000 28.08600
14515 SI 14515 SI SI1 14515 1.100000 28.08600
14516 SI 14516 SI SI1 14516 1.100000 28.08600
14517 SI 14517 SI SI1 14517 1.100000 28.08600
14518 SI 14518 SI SI1 14518 1.100000 28.08600
14519 SI 14519 SI SI1 14519 1.100000 28.08600
14520 SI 14520 SI SI1 14520 1.100000 28.08600
14521 SI 14521 SI SI1 14521 1.100000 28.08600
14522 SI 14522 SI SI1 14522 1.100000 28.08600
14523 SI 14523 SI SI1 14523 1.100000 28.08600
14524 SI 14524 SI SI1 14524 1.100000 28.08600
14525 SI 14525 SI SI1 14525 1.100000 28.08600
14526 SI 14526 SI SI1 14526 1.100000 28.08600
14527 SI 14527 SI SI1 14527 1.100000 28.08600
14528 SI 14528 SI SI1 14528 1.100000 28.08600
14529 SI 14529 SI SI1 14529 1.100000 28.08600
14530 SI 14530 SI SI1 14530 1.100000 28.08600
14531 SI 14531 SI SI1 14531 1.100000 28.08600
14532 SI 14532 SI SI1 14532 1.100000 28.08600
14533 SI 14533 SI SI1 14533 1.100000 28.08600
14534 SI 14534 SI SI1 14534 1.100000 28.08600
14535 SI 14535 SI SI1 14535 1.100000 28.08600
14536 SI 14536 SI SI1 14536 1.100000 28.08600
14537 SI 14537 SI SI1 14537 1.100000 28.08600
14538 SI 14538 SI SI1 14538 1.100000 28.08600
14539 SI 14539 SI SI1 14539 1.100000 28.08600
14540 SI 14540 SI SI1 14540 1.100000 28.08600
14541 SI 14541 SI SI1 14541 1.100000 28.08600
14542 SI 14542 SI SI1 14542 1.100000 28.08600
14543 SI 14543 SI SI1 14543 1.100000 28.08600
14544 SI 14544 SI SI1 14544 1.100000 28.08600
14545 SI 14545 SI SI1 14545 1.100000 28.08600
14546 SI 14546 SI SI1 14546 1.100000 28.08600
14547 SI 14547 SI SI1 14547 1.100000 28.08600
14548 SI 14548 SI SI1 14548 1.100000 28.08600
14549 SI 14549 SI SI1 14549 1.100000 28.08600
14550 SI 14550 SI SI1 14550 1.100000 28.08600
14551 SI 14551 SI SI1 14551 1.100000 28.08600
14552 SI 14552 SI SI1 14552 1.100000 28.08600
14553 SI 14553 SI SI1 14553 1.100000 28.08600
14554 SI 14554 SI SI1 14554 1.100000 28.08600
14555 SI 14555 SI SI1 14555 1.100000 28.08600
14556 SI 14556 SI SI1 14556 1.100000 28.08600
14557 SI 14557 SI SI1 14557 1.100000 28.08600
14558 SI 14558 SI SI1 14558 1.100000 28.08600
14559 SI 14559 SI SI1 14559 1.100000 28.08600
14560 SI 14560 SI SI1 14560 1.100000 28.08600
14561 SI 14561 SI SI1 14561 1.100000 28.08600
14562 SI 14562 SI SI1 14562 1.100000 28.08600
14563 SI 14563 SI SI1 14563 1.100000 28.08600
14564 SI 14564 SI SI1 14564 1.100000 28.08600
14565 SI 14565 SI SI1 14565 1.100000 28.08600
14566 SI 14566 SI SI1 14566 1.100000 28.08600
14567 SI 14567 SI SI1 14567 1.100000 28.08600
14568 SI 14568 SI SI1 14568 1.100000 28.08600
14569 SI 14569 SI SI1 14569 1.100000 28.08600
14570 SI 14570 SI SI1 14570 1.100000 28.08600
14571 SI 14571 SI SI1 14571 1.100000 28.08600
14572 SI 14572 SI SI1 14572 1.100000 28.08600
14573 SI 14573 SI SI1 14573 1.100000 28.08600
14574 SI 14574 SI SI1 14574 1.100000 28.08600
14575 SI 14575 SI SI1 14575 1.100000 28.08600
14576 SI 14576 SI SI1 14576 1.100000 28.08600
14577 SI 14577 SI SI1 14577 1.100000 28.08600
14578 SI 14578 SI SI1 14578 1.100000 28.08600
14579 SI 14579 SI SI1 14579 1.100000 28.08600
14580 SI 14580 SI SI1 14580 1.100000 28.08600
14581 SI 14581 SI SI1 14581 1.100000 28.08600
14582 SI 14582 SI SI1 14582 1.100000 28.08600
14583 SI 14583 SI SI1 14583 1.100000 28.08600
14584 SI 14584 SI SI1 14584 1.100000 28.08600
14585 SI 14585 SI SI1 14585 1.100000 28.08600
14586 SI 14586 SI SI1 14586 1.100000 28.08600
14587 SI 14587 SI SI1 14587 1.100000 28.08600
14588 SI 14588 SI SI1 14588 1.100000 28.08600
14589 SI 14589 SI SI1 14589 1.100000 28.08600
14590 SI 14590 SI SI1 14590 1.100000 28.08600
14591 SI 14591 SI SI1 14591 1.100000 28.08600
14592 SI 14592 SI SI1 14592 1.100000 28.08600
14593 SI 14593 SI SI1 14593 1.100000 28.08600
14594 SI 14594 SI SI1 14594 1.100000 28.08600
14595 SI 14595 SI SI1 14595 1.100000 28.08600
14596 SI 14596 SI SI1 14596 1.100000 28.08600
14597 SI 14597 SI SI1 14597 1.100000 28.08600
14598 SI 14598 SI SI1 14598 1.100000 28.08600
14599 SI 14599 SI SI1 14599 1.100000 28.08600
14600 SI 14600 SI SI1 14600 1.100000 28.08600
14601 SI 14601 SI SI1 14601 1.100000 28.08600
14602 SI 14602 SI SI1 14602 1.100000 28.08600
14603 SI 14603 SI SI1 14603 1.100000 28.08600
14604 SI 14604 SI SI1 14604 1.100000 28.08600
14605 SI 14605 SI SI1 14605 1.100000 28.08600
14606 SI 14606 SI SI1 14606 1.100000 28.08600
14607 SI 14607 SI SI1 14607 1.100000 28.08600
14608 SI 14608 SI SI1 14608 1.100000 28.08600
14609 SI 14609 SI SI1 14609 1.100000 28.08600
14610 SI 14610 SI SI1 14610 1.100000 28.08600
14611 SI 14611 SI SI1 14611 1.100000 28.08600
14612 SI 14612 SI SI1 14612 1.100000 28.08600
14613 SI 14613 SI SI1 14613 1.100000 28.08600
14614 SI 14614 SI SI1 14614 1.100000 28.08600
14615 SI 14615 SI SI1 14615 1.100000 28.08600
14616 SI 14616 SI SI1 14616 1.100000 28.08600
14617 SI 14617 SI SI1 14617 1.100000 28.08600
14618 SI 14618 SI SI1 14618 1.100000 28.08600
14619 SI 14619 SI SI1 14619 1.100000 28.08600
14620 SI 14620 SI SI1 14620 1.100000 28.08600
14621 SI 14621 SI SI1 14621 1.100000 28.08600
14622 SI 14622 SI SI1 14622 1.100000 28.08600
14623 SI 14623 SI SI1 14623 1.100000 28.08600
14624 SI 14624 SI SI1 14624 1.100000 28.08600
14625 SI 14625 SI SI1 14625 1.100000 28.08600
14626 SI 14626 SI SI1 14626 1.100000 28.08600
14627 SI 14627 SI SI1 14627 1.100000 28.08600
14628 SI 14628 SI SI1 14628 1.100000 28.08600
14629 SI 14629 SI SI1 14629 1.100000 28.08600
14630 SI 14630 SI SI1 14630 1.100000 28.08600
14631 SI 14631 SI SI1 14631 1.100000 28.08600
14632 SI 14632 SI SI1 14632 1.100000 28.08600
14633 SI 14633 SI SI1 14633 1.100000 28.08600
14634 SI 14634 SI SI1 14634 1.100000 28.08600
14635 SI 14635 SI SI1 14635 1.100000 28.08600
14636 SI 14636 SI SI1 14636 1.100000 28.08600
14637 SI 14637 SI SI1 14637 1.100000 28.08600
14638 SI 14638 SI SI1 14638 1.100000 28.08600
14639 SI 14639 SI SI1 14639 1.100000 28.08600
14640 SI 14640 SI SI1 14640 1.100000 28.08600
14641 SI 14641 SI SI1 14641 1.100000 28.08600
14642 SI 14642 SI SI1 14642 1.100000 28.08600
14643 SI 14643 SI SI1 14643 1.100000 28.08600
14644 SI 14644 SI SI1 14644 1.100000 28.08600
14645 SI 14645 SI SI1 14645 1.100000 28.08600
14646 SI 14646 SI SI1 14646 1.100000 28.08600
14647 SI 14647 SI SI1 14647 1.100000 28.08600
14648 SI 14648 SI SI1 14648 1.100000 28.08600
14649 SI 14649 SI SI1 14649 1.100000 28.08600
14650 SI 14650 SI SI1 14650 1.100000 28.08600
14651 SI 14651 SI SI1 14651 1.100000 28.08600
14652 SI 14652 SI SI1 14652 1.100000 28.08600
14653 SI 14653 SI SI1 14653 1.100000 28.08600
14654 SI 14654 SI SI1 14654 1.100000 28.08600
14655 SI 14655 SI SI1 14655 1.100000 28.08600
14656 SI 14656 SI SI1 14656 1.100000 28.08600
14657 SI 14657 SI SI1 14657 1.100000 28.08600
14658 SI 14658 SI SI1 14658 1.100000 28.08600
14659 SI 14659 SI SI1 14659 1.100000 28.08600
14660 SI 14660 SI SI1 14660 1.100000 28.08600
14661 SI 14661 SI SI1 14661 1.100000 28.08600
14662 SI 14662 SI SI1 14662 1.100000 28.08600
14663 SI 14663 SI SI1 14663 1.100000 28.08600
14664 SI 14664 SI SI1 14664 1.100000 28.08600
14665 SI 14665 SI SI1 14665 1.100000 28.08600
14666 SI 14666 SI SI1 14666 1.100000 28.08600
14667 SI 14667 SI SI1 14667 1.100000 28.08600
14668 SI 14668 SI SI1 14668 1.100000 28.08600
14669 SI 14669 SI SI1 14669 1.100000 28.08600
14670 SI 14670 SI SI1 14670 1.100000 28.08600
14671 SI 14671 SI SI1 14671 1.100000 28.08600
14672 SI 14672 SI SI1 14672 1.100000 28.08600
14673 SI 14673 SI SI1 14673 1.100000 28.08600
14674 SI 14674 SI SI1 14674 1.100000 28.08600
14675 SI 14675 SI SI1 14675 1.100000 28.08600
14676 SI 14676 SI SI1 14676 1.100000 28.08600
14677 SI 14677 SI SI1 14677 1.100000 28.08600
14678 SI 14678 SI SI1 14678 1.100000 28.08600
14679 SI 14679 SI SI1 14679 1.100000 28.08600
14680 SI 14680 SI SI1 14680 1.100000 28.08600
14681 SI 14681 SI SI1 14681 1.100000 28.08600
14682 SI 14682 SI SI1 14682 1.100000 28.08600
14683 SI 14683 SI SI1 14683 1.100000 28.08600
14684 SI 14684 SI SI1 14684 1.100000 28.08600
14685 SI 14685 SI SI1 14685 1.100000 28.08600
14686 SI 14686 SI SI1 14686 1.100000 28.08600
14687 SI 14687 SI SI1 14687 1.100000 28.08600
14688 SI 14688 SI SI1 14688 1.100000 28.08600
14689 SI 14689 SI SI1 14689 1.100000 28.08600
14690 SI 14690 SI SI1 14690 1.100000 28.08600
14691 SI 14691 SI SI1 14691 1.100000 28.08600
14692 SI 14692 SI SI1 14692 1.100000 28.08600
14693 SI 14693 SI SI1 14693 1.100000 28.08600
14694 SI 14694 SI SI1 14694 1.100000 28.08600
14695 SI 14695 SI SI1 14695 1.100000 28.08600
14696 SI 14696 SI SI1 14696 1.100000 28.08600
14697 SI 14697 SI SI1 14697 1.100000 28.08600
14698 SI 14698 SI SI1 14698 1.100000 28.08600
14699 SI 14699 SI SI1 14699 1.100000 28.08600
14700 SI 14700 SI SI1 14700 1.100000 28.08600
14701 SI 14701 SI SI1 14701 1.100000 28.08600
14702 SI 14702 SI SI1 14702 1.100000 28.08600
14703 SI 14703 SI SI1 14703 1.100000 28.08600
14704 SI 14704 SI SI1 14704 1.100000 28.08600
14705 SI 14705 SI SI1 14705 1.100000 28.08600
14706 SI 14706 SI SI1 14706 1.100000 28.08600
14707 SI 14707 SI SI1 14707 1.100000 28.08600
14708 SI 14708 SI SI1 14708 1.100000 28.08600
14709 SI 14709 SI SI1 14709 1.100000 28.08600
14710 SI 14710 SI SI1 14710 1.100000 28.08600
14711 SI 14711 SI SI1 14711 1.100000 28.08600
14712 SI 14712 SI SI1 14712 1.100000 28.08600
14713 SI 14713 SI SI1 14713 1.100000 28.08600
14714 SI 14714 SI SI1 14714 1.100000 28.08600
14715 SI 14715 SI SI1 14715 1.100000 28.08600
14716 SI 14716 SI SI1 14716 1.100000 28.08600
14717 SI 14717 SI SI1 14717 1.100000 28.08600
14718 SI 14718 SI SI1 14718 1.100000 28.08600
14719 SI 14719 SI SI1 14719 1.100000 28.08600
14720 SI 14720 SI SI1 14720 1.100000 28.08600
14721 SI 14721 SI SI1 14721 1.100000 28.08600
14722 SI 14722 SI SI1 14722 1.100000 28.08600
14723 SI 14723 SI SI1 14723 1.100000 28.08600
14724 SI 14724 SI SI1 14724 1.100000 28.08600
14725 SI 14725 SI SI1 14725 1.100000 28.08600
14726 SI 14726 SI SI1 14726 1.100000 28.08600
14727 SI 14727 SI SI1 14727 1.100000 28.08600
14728 SI 14728 SI SI1 14728 1.100000 28.08600
14729 SI 14729 SI SI1 14729 1.100000 28.08600
14730 SI 14730 SI SI1 14730 1.100000 28.08600
14731 SI 14731 SI SI1 14731 1.100000 28.08600
14732 SI 14732 SI SI1 14732 1.100000 28.08600
14733 SI 14733 SI SI1 14733 1.100000 28.08600
14734 SI 14734 SI SI1 14734 1.100000 28.08600
14735 SI 14735 SI SI1 14735 1.100000 28.08600
14736 SI 14736 SI SI1 14736 1.100000 28.08600
14737 SI 14737 SI SI1 14737 1.100000 28.08600
14738 SI 14738 SI SI1 14738 1.100000 28.08600
14739 SI 14739 SI SI1 14739 1.100000 28.08600
14740 SI 14740 SI SI1 14740 1.100000 28.08600
14741 SI 14741 SI SI1 14741 1.100000 28.08600
14742 SI 14742 SI SI1 14742 1.100000 28.08600
14743 SI 14743 SI SI1 14743 1.100000 28.08600
14744 SI 14744 SI SI1 14744 1.100000 28.08600
14745 SI 14745 SI SI1 14745 1.100000 28.08600
14746 SI 14746 SI SI1 14746 1.100000 28.08600
14747 SI 14747 SI SI1 14747 1.100000 28.08600
14748 SI 14748 SI SI1 14748 1.100000 28.08600
14749 SI 14749 SI SI1 14749 1.100000 28.08600
14750 SI 14750 SI SI1 14750 1.100000 28.08600
14751 SI 14751 SI SI1 14751 1.100000 28.08600
14752 SI 14752 SI SI1 14752 1.100000 28.08600
14753 SI 14753 SI SI1 14753 1.100000 28.08600
14754 SI 14754 SI SI1 14754 1.100000 28.08600
14755 SI 14755 SI SI1 14755 1.100000 28.08600
14756 SI 14756 SI SI1 14756 1.100000 28.08600
14757 SI 14757 SI SI1 14757 1.100000 28.08600
14758 SI 14758 SI SI1 14758 1.100000 28.08600
14759 SI 14759 SI SI1 14759 1.100000 28.08600
14760 SI 14760 SI SI1 14760 1.100000 28.08600
14761 SI 14761 SI SI1 14761 1.100000 28.08600
14762 SI 14762 SI SI1 14762 1.100000 28.08600
14763 SI 14763 SI SI1 14763 1.100000 28.08600
14764 SI 14764 SI SI1 14764 1.100000 28.08600
14765 SI 14765 SI SI1 14765 1.100000 28.08600
14766 SI 14766 SI SI1 14766 1.100000 28.08600
14767 SI 14767 SI SI1 14767 1.100000 28.08600
14768 SI 14768 SI SI1 14768 1.100000 28.08600
14769 SI 14769 SI SI1 14769 1.100000 28.08600
14770 SI 14770 SI SI1 14770 1.100000 28.08600
14771 SI 14771 SI SI1 14771 1.100000 28.08600
14772 SI 14772 SI SI1 14772 1.100000 28.08600
14773 SI 14773 SI SI1 14773 1.100000 28.08600
14774 SI 14774 SI SI1 14774 1.100000 28.08600
14775 SI 14775 SI SI1 14775 1.100000 28.08600
14776 SI 14776 SI SI1 14776 1.100000 28.08600
14777 SI 14777 SI SI1 14777 1.100000 28.08600
14778 SI 14778 SI SI1 14778 1.100000 28.08600
14779 SI 14779 SI SI1 14779 1.100000 28.08600
14780 SI 14780 SI SI1 14780 1.100000 28.08600
14781 SI 14781 SI SI1 14781 1.100000 28.08600
14782 SI 14782 SI SI1 14782 1.100000 28.08600
14783 SI 14783 SI SI1 14783 1.100000 28.08600
14784 SI 14784 SI SI1 14784 1.100000 28.08600
14785 SI 14785 SI SI1 14785 1.100000 28.08600
14786 SI 14786 SI SI1 14786 1.100000 28.08600
14787 SI 14787 SI SI1 14787 1.100000 28.08600
14788 SI 14788 SI SI1 14788 1.100000 28.08600
14789 SI 14789 SI SI1 14789 1.100000 28.08600
14790 SI 14790 SI SI1 14790 1.100000 28.08600
14791 SI 14791 SI SI1 14791 1.100000 28.08600
14792 SI 14792 SI SI1 14792 1.100000 28.08600
14793 SI 14793 SI SI1 14793 1.100000 28.08600
14794 SI 14794 SI SI1 14794 1.100000 28.08600
14795 SI 14795 SI SI1 14795 1.100000 28.08600
14796 SI 14796 SI SI1 14796 1.100000 28.08600
14797 SI 14797 SI SI1 14797 1.100000 28.08600
14798 SI 14798 SI SI1 14798 1.100000 28.08600
14799 SI 14799 SI SI1 14799 1.100000 28.08600
14800 SI 14800 SI SI1 14800 1.100000 28.08600
14801 SI 14801 SI SI1 14801 1.100000 28.08600
14802 SI 14802 SI SI1 14802 1.100000 28.08600
14803 SI 14803 SI SI1 14803 1.100000 28.08600
14804 SI 14804 SI SI1 14804 1.100000 28.08600
14805 SI 14805 SI SI1 14805 1.100000 28.08600
14806 SI 14806 SI SI1 14806 1.100000 28.08600
14807 SI 14807 SI SI1 14807 1.100000 28.08600
14808 SI 14808 SI SI1 14808 1.100000 28.08600
14809 SI 14809 SI SI1 14809 1.100000 28.08600
14810 SI 14810 SI SI1 14810 1.100000 28.08600
14811 SI 14811 SI SI1 14811 1.100000 28.08600
14812 SI 14812 SI SI1 14812 1.100000 28.08600
14813 SI 14813 SI SI1 14813 1.100000 28.08600
14814 SI 14814 SI SI1 14814 1.100000 28.08600
14815 SI 14815 SI SI1 14815 1.100000 28.08600
14816 SI 14816 SI SI1 14816 1.100000 28.08600
14817 SI 14817 SI SI1 14817 1.100000 28.08600
14818 SI 14818 SI SI1 14818 1.100000 28.08600
14819 SI 14819 SI SI1 14819 1.100000 28.08600
14820 SI 14820 SI SI1 14820 1.100000 28.08600
14821 SI 14821 SI SI1 14821 1.100000 28.08600
14822 SI 14822 SI SI1 14822 1.100000 28.08600
14823 SI 14823 SI SI1 14823 1.100000 28.08600
14824 SI 14824 SI SI1 14824 1.100000 28.08600
14825 SI 14825 SI SI1 14825 1.100000 28.08600
14826 SI 14826 SI SI1 14826 1.100000 28.08600
14827 SI 14827 SI SI1 14827 1.100000 28.08600
14828 SI 14828 SI SI1 14828 1.100000 28.08600
14829 SI 14829 SI SI1 14829 1.100000 28.08600
14830 SI 14830 SI SI1 14830 1.100000 28.08600
14831 SI 14831 SI SI1 14831 1.100000 28.08600
14832 SI 14832 SI SI1 14832 1.100000 28.08600
14833 SI 14833 SI SI1 14833 1.100000 28.08600
14834 SI 14834 SI SI1 14834 1.100000 28.08600
14835 SI 14835 SI SI1 14835 1.100000 28.08600
14836 SI 14836 SI SI1 14836 1.100000 28.08600
14837 SI 14837 SI SI1 14837 1.100000 28.08600
14838 SI 14838 SI SI1 14838 1.100000 28.08600
14839 SI 14839 SI SI1 14839 1.100000 28.08600
14840 SI 14840 SI SI1 14840 1.100000 28.08600
14841 SI 14841 SI SI1 14841 1.100000 28.08600
14842 SI 14842 SI SI1 14842 1.100000 28.08600
14843 SI 14843 SI SI1 14843 1.100000 28.08600
14844 SI 14844 SI SI1 14844 1.100000 28.08600
14845 SI 14845 SI SI1 14845 1.100000 28.08600
14846 SI 14846 SI SI1 14846 1.100000 28.08600
14847 SI 14847 SI SI1 14847 1.100000 28.08600
14848 SI 14848 SI SI1 14848 1.100000 28.08600
14849 SI 14849 SI SI1 14849 1.100000 28.08600
14850 SI 14850 SI SI1 14850 1.100000 28.08600
14851 SI 14851 SI SI1 14851 1.100000 28.08600
14852 SI 14852 SI SI1 14852 1.100000 28.08600
14853 SI 14853 SI SI1 14853 1.100000 28.08600
14854 SI 14854 SI SI1 14854 1.100000 28.08600
14855 SI 14855 SI SI1 14855 1.100000 28.08600
14856 SI 14856 SI SI1 14856 1.100000 28.08600
14857 SI 14857 SI SI1 14857 1.100000 28.08600
14858 SI 14858 SI SI1 14858 1.100000 28.08600
14859 SI 14859 SI SI1 14859 1.100000 28.08600
14860 SI 14860 SI SI1 14860 1.100000 28.08600
14861 SI 14861 SI SI1 14861 1.100000 28.08600
14862 SI 14862 SI SI1 14862 1.100000 28.08600
14863 SI 14863 SI SI1 14863 1.100000 28.08600
14864 SI 14864 SI SI1 14864 1.100000 28.08600
14865 SI 14865 SI SI1 14865 1.100000 28.08600
14866 SI 14866 SI SI1 14866 1.100000 28.08600
14867 SI 14867 SI SI1 14867 1.100000 28.08600
14868 SI 14868 SI SI1 14868 1.100000 28.08600
14869 SI 14869 SI SI1 14869 1.100000 28.08600
14870 SI 14870 SI SI1 14870 1.100000 28.08600
14871 SI 14871 SI SI1 14871 1.100000 28.08600
14872 SI 14872 SI SI1 14872 1.100000 28.08600
14873 SI 14873 SI SI1 14873 1.100000 28.08600
14874 SI 14874 SI SI1 14874 1.100000 28.08600
14875 SI 14875 SI SI1 14875 1.100000 28.08600
14876 SI 14876 SI SI1 14876 1.100000 28.08600
14877 SI 14877 SI SI1 14877 1.100000 28.08600
14878 SI 14878 SI SI1 14878 1.100000 28.08600
14879 SI 14879 SI SI1 14879 1.100000 28.08600
14880 SI 14880 SI SI1 14880 1.100000 28.08600
14881 SI 14881 SI SI1 14881 1.100000 28.08600
14882 SI 14882 SI SI1 14882 1.100000 28.08600
14883 SI 14883 SI SI1 14883 1.100000 28.08600
14884 SI 14884 SI SI1 14884 1.100000 28.08600
14885 SI 14885 SI SI1 14885 1.100000 28.08600
14886 SI 14886 SI SI1 14886 1.100000 28.08600
14887 SI 14887 SI SI1 14887 1.100000 28.08600
14888 SI 14888 SI SI1 14888 1.100000 28.08600
14889 SI 14889 SI SI1 14889 1.100000 28.08600
14890 SI 14890 SI SI1 14890 1.100000 28.08600
14891 SI 14891 SI SI1 14891 1.100000 28.08600
14892 SI 14892 SI SI1 14892 1.100000 28.08600
14893 SI 14893 SI SI1 14893 1.100000 28.08600
14894 SI 14894 SI SI1 14894 1.100000 28.08600
14895 SI 14895 SI SI1 14895 1.100000 28.08600
14896 SI 14896 SI SI1 14896 1.100000 28.08600
14897 SI 14897 SI SI1 14897 1.100000 28.08600
14898 SI 14898 SI SI1 14898 1.100000 28.08600
14899 SI 14899 SI SI1 14899 1.100000 28.08600
14900 SI 14900 SI SI1 14900 1.100000 28.08600
14901 SI 14901 SI SI1 14901 1.100000 28.08600
14902 SI 14902 SI SI1 14902 1.100000 28.08600
14903 SI 14903 SI SI1 14903 1.100000 28.08600
14904 SI 14904 SI SI1 14904 1.100000 28.08600
14905 SI 14905 SI SI1 14905 1.100000 28.08600
14906 SI 14906 SI SI1 14906 1.100000 28.08600
14907 SI 14907 SI SI1 14907 1.100000 28.08600
14908 SI 14908 SI SI1 14908 1.100000 28.08600
14909 SI 14909 SI SI1 14909 1.100000 28.08600
14910 SI 14910 SI SI1 14910 1.100000 28.08600
14911 SI 14911 SI SI1 14911 1.100000 28.08600
14912 SI 14912 SI SI1 14912 1.100000 28.08600
14913 SI 14913 SI SI1 14913 1.100000 28.08600
14914 SI 14914 SI SI1 14914 1.100000 28.08600
14915 SI 14915 SI SI1 14915 1.100000 28.08600
14916 SI 14916 SI SI1 14916 1.100000 28.08600
14917 SI 14917 SI SI1 14917 1.100000 28.08600
14918 SI 14918 SI SI1 14918 1.100000 28.08600
14919 SI 14919 SI SI1 14919 1.100000 28.08600
14920 SI 14920 SI SI1 14920 1.100000 28.08600
14921 SI 14921 SI SI1 14921 1.100000 28.08600
14922 SI 14922 SI SI1 14922 1.100000 28.08600
14923 SI 14923 SI SI1 14923 1.100000 28.08600
14924 SI 14924 SI SI1 14924 1.100000 28.08600
14925 SI 14925 SI SI1 14925 1.100000 28.08600
14926 SI 14926 SI SI1 14926 1.100000 28.08600
14927 SI 14927 SI SI1 14927 1.100000 28.08600
14928 SI 14928 SI SI1 14928 1.100000 28.08600
14929 SI 14929 SI SI1 14929 1.100000 28.08600
14930 SI 14930 SI SI1 14930 1.100000 28.08600
14931 SI 14931 SI SI1 14931 1.100000 28.08600
14932 SI 14932 SI SI1 14932 1.100000 28.08600
14933 SI 14933 SI SI1 14933 1.100000 28.08600
14934 SI 14934 SI SI1 14934 1.100000 28.08600
14935 SI 14935 SI SI1 14935 1.100000 28.08600
14936 SI 14936 SI SI1 14936 1.100000 28.08600
14937 SI 14937 SI SI1 14937 1.100000 28.08600
14938 SI 14938 SI SI1 14938 1.100000 28.08600
14939 SI 14939 SI SI1 14939 1.100000 28.08600
14940 SI 14940 SI SI1 14940 1.100000 28.08600
14941 SI 14941 SI SI1 14941 1.100000 28.08600
14942 SI 14942 SI SI1 14942 1.100000 28.08600
14943 SI 14943 SI SI1 14943 1.100000 28.08600
14944 SI 14944 SI SI1 14944 1.100000 28.08600
14945 SI 14945 SI SI1 14945 1.100000 28.08600
14946 SI 14946 SI SI1 14946 1.100000 28.08600
14947 SI 14947 SI SI1 14947 1.100000 28.08600
14948 SI 14948 SI SI1 14948 1.100000 28.08600
14949 SI 14949 SI SI1 14949 1.100000 28.08600
14950 SI 14950 SI SI1 14950 1.100000 28.08600
14951 SI 14951 SI SI1 14951 1.100000 28.08600
14952 SI 14952 SI SI1 14952 1.100000 28.08600
14953 SI 14953 SI SI1 14953 1.100000 28.08600
14954 SI 14954 SI SI1 14954 1.100000 28.08600
14955 SI 14955 SI SI1 14955 1.100000 28.08600
14956 SI 14956 SI SI1 14956 1.100000 28.08600
14957 SI 14957 SI SI1 14957 1.100000 28.08600
14958 SI 14958 SI SI1 14958 1.100000 28.08600
14959 SI 14959 SI SI1 14959 1.100000 28.08600
14960 SI 14960 SI SI1 14960 1.100000 28.08600
14961 SI 14961 SI SI1 14961 1.100000 28.08600
14962 SI 14962 SI SI1 14962 1.100000 28.08600
14963 SI 14963 SI SI1 14963 1.100000 28.08600
14964 SI 14964 SI SI1 14964 1.100000 28.08600
14965 SI 14965 SI SI1 14965 1.100000 28.08600
14966 SI 14966 SI SI1 14966 1.100000 28.08600
14967 SI 14967 SI SI1 14967 1.100000 28.08600
14968 SI 14968 SI SI1 14968 1.100000 28.08600
14969 SI 14969 SI SI1 14969 1.100000 28.08600
14970 SI 14970 SI SI1 14970 1.100000 28.08600
14971 SI 14971 SI SI1 14971 1.100000 28.08600
14972 SI 14972 SI SI1 14972 1.100000 28.08600
14973 SI 14973 SI SI1 14973 1.100000 28.08600
14974 SI 14974 SI SI1 14974 1.100000 28.08600
14975 SI 14975 SI SI1 14975 1.100000 28.08600
14976 SI 14976 SI SI1 14976 1.100000 28.08600
14977 SI 14977 SI SI1 14977 1.100000 28.08600
14978 SI 14978 SI SI1 14978 1.100000 28.08600
14979 SI 14979 SI SI1 14979 1.100000 28.08600
14980 SI 14980 SI SI1 14980 1.100000 28.08600
14981 SI 14981 SI SI1 14981 1.100000 28.08600
14982 SI 14982 SI SI1 14982 1.100000 28.08600
14983 SI 14983 SI SI1 14983 1.100000 28.08600
14984 SI 14984 SI SI1 14984 1.100000 28.08600
14985 SI 14985 SI SI1 14985 1.100000 28.08600
14986 SI 14986 SI SI1 14986 1.100000 28.08600
14987 SI 14987 SI SI1 14987 1.100000 28.08600
14988 SI 14988 SI SI1 14988 1.100000 28.08600
14989 SI 14989 SI SI1 14989 1.100000 28.08600
14990 SI 14990 SI SI1 14990 1.100000 28.08600
14991 SI 14991 SI SI1 14991 1.100000 28.08600
14992 SI 14992 SI SI1 14992 1.100000 28.08600
14993 SI 14993 SI SI1 14993 1.100000 28.08600
14994 SI 14994 SI SI1 14994 1.100000 28.08600
14995 SI 14995 SI SI1 14995 1.100000 28.08600
14996 SI 14996 SI SI1 14996 1.100000 28.08600
14997 SI 14997 SI SI1 14997 1.100000 28.08600
14998 SI 14998 SI SI1 14998 1.100000 28.08600
14999 SI 14999 SI SI1 14999 1.100000 28.08600
15000 SI 15000 SI SI1 15000 1.100000 28.08600
15001 SI 15001 SI SI1 15001 1.100000 28.08600
15002 SI 15002 SI SI1 15002 1.100000 28.08600
15003 SI 15003 SI SI1 15003 1.100000 28.08600
15004 SI 15004 SI SI1 15004 1.100000 28.08600
15005 SI 15005 SI SI1 15005 1.100000 28.08600
15006 SI 15006 SI SI1 15006 1.100000 28.08600
15007 SI 15007 SI SI1 15007 1.100000 28.08600
15008 SI 15008 SI SI1 15008 1.100000 28.08600
15009 SI 15009 SI SI1 15009 1.100000 28.08600
15010 SI 15010 SI SI1 15010 1.100000 28.08600
15011 SI 15011 SI SI1 15011 1.100000 28.08600
15012 SI 15012 SI SI1 15012 1.100000 28.08600
15013 SI 15013 SI SI1 15013 1.100000 28.08600
15014 SI 15014 SI SI1 15014 1.100000 28.08600
15015 SI 15015 SI SI1 15015 1.100000 28.08600
15016 SI 15016 SI SI1 15016 1.100000 28.08600
15017 SI 15017 SI SI1 15017 1.100000 28.08600
15018 SI 15018 SI SI1 15018 1.100000 28.08600
15019 SI 15019 SI SI1 15019 1.100000 28.08600
15020 SI 15020 SI SI1 15020 1.100000 28.08600
15021 SI 15021 SI SI1 15021 1.100000 28.08600
15022 SI 15022 SI SI1 15022 1.100000 28.08600
15023 SI 15023 SI SI1 15023 1.100000 28.08600
15024 SI 15024 SI SI1 15024 1.100000 28.08600
15025 SI 15025 SI SI1 15025 1.100000 28.08600
15026 SI 15026 SI SI1 15026 1.100000 28.08600
15027 SI 15027 SI SI1 15027 1.100000 28.08600
15028 SI 15028 SI SI1 15028 1.100000 28.08600
15029 SI 15029 SI SI1 15029 1.100000 28.08600
15030 SI 15030 SI SI1 15030 1.100000 28.08600
15031 SI 15031 SI SI1 15031 1.100000 28.08600
15032 SI 15032 SI SI1 15032 1.100000 28.08600
15033 SI 15033 SI SI1 15033 1.100000 28.08600
15034 SI 15034 SI SI1 15034 1.100000 28.08600
15035 SI 15035 SI SI1 15035 1.100000 28.08600
15036 SI 15036 SI SI1 15036 1.100000 28.08600
15037 SI 15037 SI SI1 15037 1.100000 28.08600
15038 SI 15038 SI SI1 15038 1.100000 28.08600
15039 SI 15039 SI SI1 15039 1.100000 28.08600
15040 SI 15040 SI SI1 15040 1.100000 28.08600
15041 SI 15041 SI SI1 15041 1.100000 28.08600
15042 SI 15042 SI SI1 15042 1.100000 28.08600
15043 SI 15043 SI SI1 15043 1.100000 28.08600
15044 SI 15044 SI SI1 15044 1.100000 28.08600
15045 SI 15045 SI SI1 15045 1.100000 28.08600
15046 SI 15046 SI SI1 15046 1.100000 28.08600
15047 SI 15047 SI SI1 15047 1.100000 28.08600
15048 SI 15048 SI SI1 15048 1.100000 28.08600
15049 SI 15049 SI SI1 15049 1.100000 28.08600
15050 SI 15050 SI SI1 15050 1.100000 28.08600
15051 SI 15051 SI SI1 15051 1.100000 28.08600
15052 SI 15052 SI SI1 15052 1.100000 28.08600
15053 SI 15053 SI SI1 15053 1.100000 28.08600
15054 SI 15054 SI SI1 15054 1.100000 28.08600
15055 SI 15055 SI SI1 15055 1.100000 28.08600
15056 SI 15056 SI SI1 15056 1.100000 28.08600
15057 SI 15057 SI SI1 15057 1.100000 28.08600
15058 SI 15058 SI SI1 15058 1.100000 28.08600
15059 SI 15059 SI SI1 15059 1.100000 28.08600
15060 SI 15060 SI SI1 15060 1.100000 28.08600
15061 SI 15061 SI SI1 15061 1.100000 28.08600
15062 SI 15062 SI SI1 15062 1.100000 28.08600
15063 SI 15063 SI SI1 15063 1.100000 28.08600
15064 SI 15064 SI SI1 15064 1.100000 28.08600
15065 SI 15065 SI SI1 15065 1.100000 28.08600
15066 SI 15066 SI SI1 15066 1.100000 28.08600
15067 SI 15067 SI SI1 15067 1.100000 28.08600
15068 SI 15068 SI SI1 15068 1.100000 28.08600
15069 SI 15069 SI SI1 15069 1.100000 28.08600
15070 SI 15070 SI SI1 15070 1.100000 28.08600
15071 SI 15071 SI SI1 15071 1.100000 28.08600
15072 SI 15072 SI SI1 15072 1.100000 28.08600
15073 SI 15073 SI SI1 15073 1.100000 28.08600
15074 SI 15074 SI SI1 15074 1.100000 28.08600
15075 SI 15075 SI SI1 15075 1.100000 28.08600
15076 SI 15076 SI SI1 15076 1.100000 28.08600
15077 SI 15077 SI SI1 15077 1.100000 28.08600
15078 SI 15078 SI SI1 15078 1.100000 28.08600
15079 SI 15079 SI SI1 15079 1.100000 28.08600
15080 SI 15080 SI SI1 15080 1.100000 28.08600
15081 SI 15081 SI SI1 15081 1.100000 28.08600
15082 SI 15082 SI SI1 15082 1.100000 28.08600
15083 SI 15083 SI SI1 15083 1.100000 28.08600
15084 SI 15084 SI SI1 15084 1.100000 28.08600
15085 SI 15085 SI SI1 15085 1.100000 28.08600
15086 SI 15086 SI SI1 15086 1.100000 28.08600
15087 SI 15087 SI SI1 15087 1.100000 28.08600
15088 SI 15088 SI SI1 15088 1.100000 28.08600
15089 SI 15089 SI SI1 15089 1.100000 28.08600
15090 SI 15090 SI SI1 15090 1.100000 28.08600
15091 SI 15091 SI SI1 15091 1.100000 28.08600
15092 SI 15092 SI SI1 15092 1.100000 28.08600
15093 SI 15093 SI SI1 15093 1.100000 28.08600
15094 SI 15094 SI SI1 15094 1.100000 28.08600
15095 SI 15095 SI SI1 15095 1.100000 28.08600
15096 SI 15096 SI SI1 15096 1.100000 28.08600
15097 SI 15097 SI SI1 15097 1.100000 28.08600
15098 SI 15098 SI SI1 15098 1.100000 28.08600
15099 SI 15099 SI SI1 15099 1.100000 28.08600
15100 SI 15100 SI SI1 15100 1.100000 28.08600
15101 SI 15101 SI SI1 15101 1.100000 28.08600
15102 SI 15102 SI SI1 15102 1.100000 28.08600
15103 SI 15103 SI SI1 15103 1.100000 28.08600
15104 SI 15104 SI SI1 15104 1.100000 28.08600
15105 SI 15105 SI SI1 15105 1.100000 28.08600
15106 SI 15106 SI SI1 15106 1.100000 28.08600
15107 SI 15107 SI SI1 15107 1.100000 28.08600
15108 SI 15108 SI SI1 15108 1.100000 28.08600
15109 SI 15109 SI SI1 15109 1.100000 28.08600
15110 SI 15110 SI SI1 15110 1.100000 28.08600
15111 SI 15111 SI SI1 15111 1.100000 28.08600
15112 SI 15112 SI SI1 15112 1.100000 28.08600
15113 SI 15113 SI SI1 15113 1.100000 28.08600
15114 SI 15114 SI SI1 15114 1.100000 28.08600
15115 SI 15115 SI SI1 15115 1.100000 28.08600
15116 SI 15116 SI SI1 15116 1.100000 28.08600
15117 SI 15117 SI SI1 15117 1.100000 28.08600
15118 SI 15118 SI SI1 15118 1.100000 28.08600
15119 SI 15119 SI SI1 15119 1.100000 28.08600
15120 SI 15120 SI SI1 15120 1.100000 28.08600
15121 SI 15121 SI SI1 15121 1.100000 28.08600
15122 SI 15122 SI SI1 15122 1.100000 28.08600
15123 SI 15123 SI SI1 15123 1.100000 28.08600
15124 SI 15124 SI SI1 15124 1.100000 28.08600
15125 SI 15125 SI SI1 15125 1.100000 28.08600
15126 SI 15126 SI SI1 15126 1.100000 28.08600
15127 SI 15127 SI SI1 15127 1.100000 28.08600
15128 SI 15128 SI SI1 15128 1.100000 28.08600
15129 SI 15129 SI SI1 15129 1.100000 28.08600
15130 SI 15130 SI SI1 15130 1.100000 28.08600
15131 SI 15131 SI SI1 15131 1.100000 28.08600
15132 SI 15132 SI SI1 15132 1.100000 28.08600
15133 SI 15133 SI SI1 15133 1.100000 28.08600
15134 SI 15134 SI SI1 15134 1.100000 28.08600
15135 SI 15135 SI SI1 15135 1.100000 28.08600
15136 SI 15136 SI SI1 15136 1.100000 28.08600
15137 SI 15137 SI SI1 15137 1.100000 28.08600
15138 SI 15138 SI SI1 15138 1.100000 28.08600
15139 SI 15139 SI SI1 15139 1.100000 28.08600
15140 SI 15140 SI SI1 15140 1.100000 28.08600
15141 SI 15141 SI SI1 15141 1.100000 28.08600
15142 SI 15142 SI SI1 15142 1.100000 28.08600
15143 SI 15143 SI SI1 15143 1.100000 28.08600
15144 SI 15144 SI SI1 15144 1.100000 28.08600
15145 SI 15145 SI SI1 15145 1.100000 28.08600
15146 SI 15146 SI SI1 15146 1.100000 28.08600
15147 SI 15147 SI SI1 15147 1.100000 28.08600
15148 SI 15148 SI SI1 15148 1.100000 28.08600
15149 SI 15149 SI SI1 15149 1.100000 28.08600
15150 SI 15150 SI SI1 15150 1.100000 28.08600
15151 SI 15151 SI SI1 15151 1.100000 28.08600
15152 SI 15152 SI SI1 15152 1.100000 28.08600
15153 SI 15153 SI SI1 15153 1.100000 28.08600
15154 SI 15154 SI SI1 15154 1.100000 28.08600
15155 SI 15155 SI SI1 15155 1.100000 28.08600
15156 SI 15156 SI SI1 15156 1.100000 28.08600
15157 SI 15157 SI SI1 15157 1.100000 28.08600
15158 SI 15158 SI SI1 15158 1.100000 28.08600
15159 SI 15159 SI SI1 15159 1.100000 28.08600
15160 SI 15160 SI SI1 15160 1.100000 28.08600
15161 SI 15161 SI SI1 15161 1.100000 28.08600
15162 SI 15162 SI SI1 15162 1.100000 28.08600
15163 SI 15163 SI SI1 15163 1.100000 28.08600
15164 SI 15164 SI SI1 15164 1.100000 28.08600
15165 SI 15165 SI SI1 15165 1.100000 28.08600
15166 SI 15166 SI SI1 15166 1.100000 28.08600
15167 SI 15167 SI SI1 15167 1.100000 28.08600
15168 SI 15168 SI SI1 15168 1.100000 28.08600
15169 SI 15169 SI SI1 15169 1.100000 28.08600
15170 SI 15170 SI SI1 15170 1.100000 28.08600
15171 SI 15171 SI SI1 15171 1.100000 28.08600
15172 SI 15172 SI SI1 15172 1.100000 28.08600
15173 SI 15173 SI SI1 15173 1.100000 28.08600
15174 SI 15174 SI SI1 15174 1.100000 28.08600
15175 SI 15175 SI SI1 15175 1.100000 28.08600
15176 SI 15176 SI SI1 15176 1.100000 28.08600
15177 SI 15177 SI SI1 15177 1.100000 28.08600
15178 SI 15178 SI SI1 15178 1.100000 28.08600
15179 SI 15179 SI SI1 15179 1.100000 28.08600
15180 SI 15180 SI SI1 15180 1.100000 28.08600
15181 SI 15181 SI SI1 15181 1.100000 28.08600
15182 SI 15182 SI SI1 15182 1.100000 28.08600
15183 SI 15183 SI SI1 15183 1.100000 28.08600
15184 SI 15184 SI SI1 15184 1.100000 28.08600
15185 SI 15185 SI SI1 15185 1.100000 28.08600
15186 SI 15186 SI SI1 15186 1.100000 28.08600
15187 SI 15187 SI SI1 15187 1.100000 28.08600
15188 SI 15188 SI SI1 15188 1.100000 28.08600
15189 SI 15189 SI SI1 15189 1.100000 28.08600
15190 SI 15190 SI SI1 15190 1.100000 28.08600
15191 SI 15191 SI SI1 15191 1.100000 28.08600
15192 SI 15192 SI SI1 15192 1.100000 28.08600
15193 SI 15193 SI SI1 15193 1.100000 28.08600
15194 SI 15194 SI SI1 15194 1.100000 28.08600
15195 SI 15195 SI SI1 15195 1.100000 28.08600
15196 SI 15196 SI SI1 15196 1.100000 28.08600
15197 SI 15197 SI SI1 15197 1.100000 28.08600
15198 SI 15198 SI SI1 15198 1.100000 28.08600
15199 SI 15199 SI SI1 15199 1.100000 28.08600
15200 SI 15200 SI SI1 15200 1.100000 28.08600
15201 SI 15201 SI SI1 15201 1.100000 28.08600
15202 SI 15202 SI SI1 15202 1.100000 28.08600
15203 SI 15203 SI SI1 15203 1.100000 28.08600
15204 SI 15204 SI SI1 15204 1.100000 28.08600
15205 SI 15205 SI SI1 15205 1.100000 28.08600
15206 SI 15206 SI SI1 15206 1.100000 28.08600
15207 SI 15207 SI SI1 15207 1.100000 28.08600
15208 SI 15208 SI SI1 15208 1.100000 28.08600
15209 SI 15209 SI SI1 15209 1.100000 28.08600
15210 SI 15210 SI SI1 15210 1.100000 28.08600
15211 SI 15211 SI SI1 15211 1.100000 28.08600
15212 SI 15212 SI SI1 15212 1.100000 28.08600
15213 SI 15213 SI SI1 15213 1.100000 28.08600
15214 SI 15214 SI SI1 15214 1.100000 28.08600
15215 SI 15215 SI SI1 15215 1.100000 28.08600
15216 SI 15216 SI SI1 15216 1.100000 28.08600
15217 SI 15217 SI SI1 15217 1.100000 28.08600
15218 SI 15218 SI SI1 15218 1.100000 28.08600
15219 SI 15219 SI SI1 15219 1.100000 28.08600
15220 SI 15220 SI SI1 15220 1.100000 28.08600
15221 SI 15221 SI SI1 15221 1.100000 28.08600
15222 SI 15222 SI SI1 15222 1.100000 28.08600
15223 SI 15223 SI SI1 15223 1.100000 28.08600
15224 SI 15224 SI SI1 15224 1.100000 28.08600
15225 SI 15225 SI SI1 15225 1.100000 28.08600
15226 SI 15226 SI SI1 15226 1.100000 28.08600
15227 SI 15227 SI SI1 15227 1.100000 28.08600
15228 SI 15228 SI SI1 15228 1.100000 28.08600
15229 SI 15229 SI SI1 15229 1.100000 28.08600
15230 SI 15230 SI SI1 15230 1.100000 28.08600
15231 SI 15231 SI SI1 15231 1.100000 28.08600
15232 SI 15232 SI SI1 15232 1.100000 28.08600
15233 SI 15233 SI SI1 15233 1.100000 28.08600
15234 SI 15234 SI SI1 15234 1.100000 28.08600
15235 SI 15235 SI SI1 15235 1.100000 28.08600
15236 SI 15236 SI SI1 15236 1.100000 28.08600
15237 SI 15237 SI SI1 15237 1.100000 28.08600
15238 SI 15238 SI SI1 15238 1.100000 28.08600
15239 SI 15239 SI SI1 15239 1.100000 28.08600
15240 SI 15240 SI SI1 15240 1.100000 28.08600
15241 SI 15241 SI SI1 15241 1.100000 28.08600
15242 SI 15242 SI SI1 15242 1.100000 28.08600
15243 SI 15243 SI SI1 15243 1.100000 28.08600
15244 SI 15244 SI SI1 15244 1.100000 28.08600
15245 SI 15245 SI SI1 15245 1.100000 28.08600
15246 SI 15246 SI SI1 15246 1.100000 28.08600
15247 SI 15247 SI SI1 15247 1.100000 28.08600
15248 SI 15248 SI SI1 15248 1.100000 28.08600
15249 SI 15249 SI SI1 15249 1.100000 28.08600
15250 SI 15250 SI SI1 15250 1.100000 28.08600
15251 SI 15251 SI SI1 15251 1.100000 28.08600
15252 SI 15252 SI SI1 15252 1.100000 28.08600
15253 SI 15253 SI SI1 15253 1.100000 28.08600
15254 SI 15254 SI SI1 15254 1.100000 28.08600
15255 SI 15255 SI SI1 15255 1.100000 28.08600
15256 SI 15256 SI SI1 15256 1.100000 28.08600
15257 SI 15257 SI SI1 15257 1.100000 28.08600
15258 SI 15258 SI SI1 15258 1.100000 28.08600
15259 SI 15259 SI SI1 15259 1.100000 28.08600
15260 SI 15260 SI SI1 15260 1.100000 28.08600
15261 SI 15261 SI SI1 15261 1.100000 28.08600
15262 SI 15262 SI SI1 15262 1.100000 28.08600
15263 SI 15263 SI SI1 15263 1.100000 28.08600
15264 SI 15264 SI SI1 15264 1.100000 28.08600
15265 SI 15265 SI SI1 15265 1.100000 28.08600
15266 SI 15266 SI SI1 15266 1.100000 28.08600
15267 SI 15267 SI SI1 15267 1.100000 28.08600
15268 SI 15268 SI SI1 15268 1.100000 28.08600
15269 SI 15269 SI SI1 15269 1.100000 28.08600
15270 SI 15270 SI SI1 15270 1.100000 28.08600
15271 SI 15271 SI SI1 15271 1.100000 28.08600
15272 SI 15272 SI SI1 15272 1.100000 28.08600
15273 SI 15273 SI SI1 15273 1.100000 28.08600
15274 SI 15274 SI SI1 15274 1.100000 28.08600
15275 SI 15275 SI SI1 15275 1.100000 28.08600
15276 SI 15276 SI SI1 15276 1.100000 28.08600
15277 SI 15277 SI SI1 15277 1.100000 28.08600
15278 SI 15278 SI SI1 15278 1.100000 28.08600
15279 SI 15279 SI SI1 15279 1.100000 28.08600
15280 SI 15280 SI SI1 15280 1.100000 28.08600
15281 SI 15281 SI SI1 15281 1.100000 28.08600
15282 SI 15282 SI SI1 15282 1.100000 28.08600
15283 SI 15283 SI SI1 15283 1.100000 28.08600
15284 SI 15284 SI SI1 15284 1.100000 28.08600
15285 SI 15285 SI SI1 15285 1.100000 28.08600
15286 SI 15286 SI SI1 15286 1.100000 28.08600
15287 SI 15287 SI SI1 15287 1.100000 28.08600
15288 SI 15288 SI SI1 15288 1.100000 28.08600
15289 SI 15289 SI SI1 15289 1.100000 28.08600
15290 SI 15290 SI SI1 15290 1.100000 28.08600
15291 SI 15291 SI SI1 15291 1.100000 28.08600
15292 SI 15292 SI SI1 15292 1.100000 28.08600
15293 SI 15293 SI SI1 15293 1.100000 28.08600
15294 SI 15294 SI SI1 15294 1.100000 28.08600
15295 SI 15295 SI SI1 15295 1.100000 28.08600
15296 SI 15296 SI SI1 15296 1.100000 28.08600
15297 SI 15297 SI SI1 15297 1.100000 28.08600
15298 SI 15298 SI SI1 15298 1.100000 28.08600
15299 SI 15299 SI SI1 15299 1.100000 28.08600
15300 SI 15300 SI SI1 15300 1.100000 28.08600
15301 SI 15301 SI SI1 15301 1.100000 28.08600
15302 SI 15302 SI SI1 15302 1.100000 28.08600
15303 SI 15303 SI SI1 15303 1.100000 28.08600
15304 SI 15304 SI SI1 15304 1.100000 28.08600
15305 SI 15305 SI SI1 15305 1.100000 28.08600
15306 SI 15306 SI SI1 15306 1.100000 28.08600
15307 SI 15307 SI SI1 15307 1.100000 28.08600
15308 SI 15308 SI SI1 15308 1.100000 28.08600
15309 SI 15309 SI SI1 15309 1.100000 28.08600
15310 SI 15310 SI SI1 15310 1.100000 28.08600
15311 SI 15311 SI SI1 15311 1.100000 28.08600
15312 SI 15312 SI SI1 15312 1.100000 28.08600
15313 SI 15313 SI SI1 15313 1.100000 28.08600
15314 SI 15314 SI SI1 15314 1.100000 28.08600
15315 SI 15315 SI SI1 15315 1.100000 28.08600
15316 SI 15316 SI SI1 15316 1.100000 28.08600
15317 SI 15317 SI SI1 15317 1.100000 28.08600
15318 SI 15318 SI SI1 15318 1.100000 28.08600
15319 SI 15319 SI SI1 15319 1.100000 28.08600
15320 SI 15320 SI SI1 15320 1.100000 28.08600
15321 SI 15321 SI SI1 15321 1.100000 28.08600
15322 SI 15322 SI SI1 15322 1.100000 28.08600
15323 SI 15323 SI SI1 15323 1.100000 28.08600
15324 SI 15324 SI SI1 15324 1.100000 28.08600
15325 SI 15325 SI SI1 15325 1.100000 28.08600
15326 SI 15326 SI SI1 15326 1.100000 28.08600
15327 SI 15327 SI SI1 15327 1.100000 28.08600
15328 SI 15328 SI SI1 15328 1.100000 28.08600
15329 SI 15329 SI SI1 15329 1.100000 28.08600
15330 SI 15330 SI SI1 15330 1.100000 28.08600
15331 SI 15331 SI SI1 15331 1.100000 28.08600
15332 SI 15332 SI SI1 15332 1.100000 28.08600
15333 SI 15333 SI SI1 15333 1.100000 28.08600
15334 SI 15334 SI SI1 15334 1.100000 28.08600
15335 SI 15335 SI SI1 15335 1.100000 28.08600
15336 SI 15336 SI SI1 15336 1.100000 28.08600
15337 SI 15337 SI SI1 15337 1.100000 28.08600
15338 SI 15338 SI SI1 15338 1.100000 28.08600
15339 SI 15339 SI SI1 15339 1.100000 28.08600
15340 SI 15340 SI SI1 15340 1.100000 28.08600
15341 SI 15341 SI SI1 15341 1.100000 28.08600
15342 SI 15342 SI SI1 15342 1.100000 28.08600
15343 SI 15343 SI SI1 15343 1.100000 28.08600
15344 SI 15344 SI SI1 15344 1.100000 28.08600
15345 SI 15345 SI SI1 15345 1.100000 28.08600
15346 SI 15346 SI SI1 15346 1.100000 28.08600
15347 SI 15347 SI SI1 15347 1.100000 28.08600
15348 SI 15348 SI SI1 15348 1.100000 28.08600
15349 SI 15349 SI SI1 15349 1.100000 28.08600
15350 SI 15350 SI SI1 15350 1.100000 28.08600
15351 SI 15351 SI SI1 15351 1.100000 28.08600
15352 SI 15352 SI SI1 15352 1.100000 28.08600
15353 SI 15353 SI SI1 15353 1.100000 28.08600
15354 SI 15354 SI SI1 15354 1.100000 28.08600
15355 SI 15355 SI SI1 15355 1.100000 28.08600
15356 SI 15356 SI SI1 15356 1.100000 28.08600
15357 SI 15357 SI SI1 15357 1.100000 28.08600
15358 SI 15358 SI SI1 15358 1.100000 28.08600
15359 SI 15359 SI SI1 15359 1.100000 28.08600
15360 SI 15360 SI SI1 15360 1.100000 28.08600
15361 SI 15361 SI SI1 15361 1.100000 28.08600
15362 SI 15362 SI SI1 15362 1.100000 28.08600
15363 SI 15363 SI SI1 15363 1.100000 28.08600
15364 SI 15364 SI SI1 15364 1.100000 28.08600
15365 SI 15365 SI SI1 15365 1.100000 28.08600
15366 SI 15366 SI SI1 15366 1.100000 28.08600
15367 SI 15367 SI SI1 15367 1.100000 28.08600
15368 SI 15368 SI SI1 15368 1.100000 28.08600
15369 SI 15369 SI SI1 15369 1.100000 28.08600
15370 SI 15370 SI SI1 15370 1.100000 28.08600
15371 SI 15371 SI SI1 15371 1.100000 28.08600
15372 SI 15372 SI SI1 15372 1.100000 28.08600
15373 SI 15373 SI SI1 15373 1.100000 28.08600
15374 SI 15374 SI SI1 15374 1.100000 28.08600
15375 SI 15375 SI SI1 15375 1.100000 28.08600
15376 SI 15376 SI SI1 15376 1.100000 28.08600
15377 SI 15377 SI SI1 15377 1.100000 28.08600
15378 SI 15378 SI SI1 15378 1.100000 28.08600
15379 SI 15379 SI SI1 15379 1.100000 28.08600
15380 SI 15380 SI SI1 15380 1.100000 28.08600
15381 SI 15381 SI SI1 15381 1.100000 28.08600
15382 SI 15382 SI SI1 15382 1.100000 28.08600
15383 SI 15383 SI SI1 15383 1.100000 28.08600
15384 SI 15384 SI SI1 15384 1.100000 28.08600
15385 SI 15385 SI SI1 15385 1.100000 28.08600
15386 SI 15386 SI SI1 15386 1.100000 28.08600
15387 SI 15387 SI SI1 15387 1.100000 28.08600
15388 SI 15388 SI SI1 15388 1.100000 28.08600
15389 SI 15389 SI SI1 15389 1.100000 28.08600
15390 SI 15390 SI SI1 15390 1.100000 28.08600
15391 SI 15391 SI SI1 15391 1.100000 28.08600
15392 SI 15392 SI SI1 15392 1.100000 28.08600
15393 SI 15393 SI SI1 15393 1.100000 28.08600
15394 SI 15394 SI SI1 15394 1.100000 28.08600
15395 SI 15395 SI SI1 15395 1.100000 28.08600
15396 SI 15396 SI SI1 15396 1.100000 28.08600
15397 SI 15397 SI SI1 15397 1.100000 28.08600
15398 SI 15398 SI SI1 15398 1.100000 28.08600
15399 SI 15399 SI SI1 15399 1.100000 28.08600
15400 SI 15400 SI SI1 15400 1.100000 28.08600
15401 SI 15401 SI SI1 15401 1.100000 28.08600
15402 SI 15402 SI SI1 15402 1.100000 28.08600
15403 SI 15403 SI SI1 15403 1.100000 28.08600
15404 SI 15404 SI SI1 15404 1.100000 28.08600
15405 SI 15405 SI SI1 15405 1.100000 28.08600
15406 SI 15406 SI SI1 15406 1.100000 28.08600
15407 SI 15407 SI SI1 15407 1.100000 28.08600
15408 SI 15408 SI SI1 15408 1.100000 28.08600
15409 SI 15409 SI SI1 15409 1.100000 28.08600
15410 SI 15410 SI SI1 15410 1.100000 28.08600
15411 SI 15411 SI SI1 15411 1.100000 28.08600
15412 SI 15412 SI SI1 15412 1.100000 28.08600
15413 SI 15413 SI SI1 15413 1.100000 28.08600
15414 SI 15414 SI SI1 15414 1.100000 28.08600
15415 SI 15415 SI SI1 15415 1.100000 28.08600
15416 SI 15416 SI SI1 15416 1.100000 28.08600
15417 SI 15417 SI SI1 15417 1.100000 28.08600
15418 SI 15418 SI SI1 15418 1.100000 28.08600
15419 SI 15419 SI SI1 15419 1.100000 28.08600
15420 SI 15420 SI SI1 15420 1.100000 28.08600
15421 SI 15421 SI SI1 15421 1.100000 28.08600
15422 SI 15422 SI SI1 15422 1.100000 28.08600
15423 SI 15423 SI SI1 15423 1.100000 28.08600
15424 SI 15424 SI SI1 15424 1.100000 28.08600
15425 SI 15425 SI SI1 15425 1.100000 28.08600
15426 SI 15426 SI SI1 15426 1.100000 28.08600
15427 SI 15427 SI SI1 15427 1.100000 28.08600
15428 SI 15428 SI SI1 15428 1.100000 28.08600
15429 SI 15429 SI SI1 15429 1.100000 28.08600
15430 SI 15430 SI SI1 15430 1.100000 28.08600
15431 SI 15431 SI SI1 15431 1.100000 28.08600
15432 SI 15432 SI SI1 15432 1.100000 28.08600
15433 SI 15433 SI SI1 15433 1.100000 28.08600
15434 SI 15434 SI SI1 15434 1.100000 28.08600
15435 SI 15435 SI SI1 15435 1.100000 28.08600
15436 SI 15436 SI SI1 15436 1.100000 28.08600
15437 SI 15437 SI SI1 15437 1.100000 28.08600
15438 SI 15438 SI SI1 15438 1.100000 28.08600
15439 SI 15439 SI SI1 15439 1.100000 28.08600
15440 SI 15440 SI SI1 15440 1.100000 28.08600
15441 SI 15441 SI SI1 15441 1.100000 28.08600
15442 SI 15442 SI SI1 15442 1.100000 28.08600
15443 SI 15443 SI SI1 15443 1.100000 28.08600
15444 SI 15444 SI SI1 15444 1.100000 28.08600
15445 SI 15445 SI SI1 15445 1.100000 28.08600
15446 SI 15446 SI SI1 15446 1.100000 28.08600
15447 SI 15447 SI SI1 15447 1.100000 28.08600
15448 SI 15448 SI SI1 15448 1.100000 28.08600
15449 SI 15449 SI SI1 15449 1.100000 28.08600
15450 SI 15450 SI SI1 15450 1.100000 28.08600
15451 SI 15451 SI SI1 15451 1.100000 28.08600
15452 SI 15452 SI SI1 15452 1.100000 28.08600
15453 SI 15453 SI SI1 15453 1.100000 28.08600
15454 SI 15454 SI SI1 15454 1.100000 28.08600
15455 SI 15455 SI SI1 15455 1.100000 28.08600
15456 SI 15456 SI SI1 15456 1.100000 28.08600
15457 SI 15457 SI SI1 15457 1.100000 28.08600
15458 SI 15458 SI SI1 15458 1.100000 28.08600
15459 SI 15459 SI SI1 15459 1.100000 28.08600
15460 SI 15460 SI SI1 15460 1.100000 28.08600
15461 SI 15461 SI SI1 15461 1.100000 28.08600
15462 SI 15462 SI SI1 15462 1.100000 28.08600
15463 SI 15463 SI SI1 15463 1.100000 28.08600
15464 SI 15464 SI SI1 15464 1.100000 28.08600
15465 SI 15465 SI SI1 15465 1.100000 28.08600
15466 SI 15466 SI SI1 15466 1.100000 28.08600
15467 SI 15467 SI SI1 15467 1.100000 28.08600
15468 SI 15468 SI SI1 15468 1.100000 28.08600
15469 SI 15469 SI SI1 15469 1.100000 28.08600
15470 SI 15470 SI SI1 15470 1.100000 28.08600
15471 SI 15471 SI SI1 15471 1.100000 28.08600
15472 SI 15472 SI SI1 15472 1.100000 28.08600
15473 SI 15473 SI SI1 15473 1.100000 28.08600
15474 SI 15474 SI SI1 15474 1.100000 28.08600
15475 SI 15475 SI SI1 15475 1.100000 28.08600
15476 SI 15476 SI SI1 15476 1.100000 28.08600
15477 SI 15477 SI SI1 15477 1.100000 28.08600
15478 SI 15478 SI SI1 15478 1.100000 28.08600
15479 SI 15479 SI SI1 15479 1.100000 28.08600
15480 SI 15480 SI SI1 15480 1.100000 28.08600
15481 SI 15481 SI SI1 15481 1.100000 28.08600
15482 SI 15482 SI SI1 15482 1.100000 28.08600
15483 SI 15483 SI SI1 15483 1.100000 28.08600
15484 SI 15484 SI SI1 15484 1.100000 28.08600
15485 SI 15485 SI SI1 15485 1.100000 28.08600
15486 SI 15486 SI SI1 15486 1.100000 28.08600
15487 SI 15487 SI SI1 15487 1.100000 28.08600
15488 SI 15488 SI SI1 15488 1.100000 28.08600
15489 SI 15489 SI SI1 15489 1.100000 28.08600
15490 SI 15490 SI SI1 15490 1.100000 28.08600
15491 SI 15491 SI SI1 15491 1.100000 28.08600
15492 SI 15492 SI SI1 15492 1.100000 28.08600
15493 SI 15493 SI SI1 15493 1.100000 28.08600
15494 SI 15494 SI SI1 15494 1.100000 28.08600
15495 SI 15495 SI SI1 15495 1.100000 28.08600
15496 SI 15496 SI SI1 15496 1.100000 28.08600
15497 SI 15497 SI SI1 15497 1.100000 28.08600
15498 SI 15498 SI SI1 15498 1.100000 28.08600
15499 SI 15499 SI SI1 15499 1.100000 28.08600
15500 SI 15500 SI SI1 15500 1.100000 28.08600
15501 SI 15501 SI SI1 15501 1.100000 28.08600
15502 SI 15502 SI SI1 15502 1.100000 28.08600
15503 SI 15503 SI SI1 15503 1.100000 28.08600
15504 SI 15504 SI SI1 15504 1.100000 28.08600
15505 SI 15505 SI SI1 15505 1.100000 28.08600
15506 SI 15506 SI SI1 15506 1.100000 28.08600
15507 SI 15507 SI SI1 15507 1.100000 28.08600
15508 SI 15508 SI SI1 15508 1.100000 28.08600
15509 SI 15509 SI SI1 15509 1.100000 28.08600
15510 SI 15510 SI SI1 15510 1.100000 28.08600
15511 SI 15511 SI SI1 15511 1.100000 28.08600
15512 SI 15512 SI SI1 15512 1.100000 28.08600
15513 SI 15513 SI SI1 15513 1.100000 28.08600
15514 SI 15514 SI SI1 15514 1.100000 28.08600
15515 SI 15515 SI SI1 15515 1.100000 28.08600
15516 SI 15516 SI SI1 15516 1.100000 28.08600
15517 SI 15517 SI SI1 15517 1.100000 28.08600
15518 SI 15518 SI SI1 15518 1.100000 28.08600
15519 SI 15519 SI SI1 15519 1.100000 28.08600
15520 SI 15520 SI SI1 15520 1.100000 28.08600
15521 SI 15521 SI SI1 15521 1.100000 28.08600
15522 SI 15522 SI SI1 15522 1.100000 28.08600
15523 SI 15523 SI SI1 15523 1.100000 28.08600
15524 SI 15524 SI SI1 15524 1.100000 28.08600
15525 SI 15525 SI SI1 15525 1.100000 28.08600
15526 SI 15526 SI SI1 15526 1.100000 28.08600
15527 SI 15527 SI SI1 15527 1.100000 28.08600
15528 SI 15528 SI SI1 15528 1.100000 28.08600
15529 SI 15529 SI SI1 15529 1.100000 28.08600
15530 SI 15530 SI SI1 15530 1.100000 28.08600
15531 SI 15531 SI SI1 15531 1.100000 28.08600
15532 SI 15532 SI SI1 15532 1.100000 28.08600
15533 SI 15533 SI SI1 15533 1.100000 28.08600
15534 SI 15534 SI SI1 15534 1.100000 28.08600
15535 SI 15535 SI SI1 15535 1.100000 28.08600
15536 SI 15536 SI SI1 15536 1.100000 28.08600
15537 SI 15537 SI SI1 15537 1.100000 28.08600
15538 SI 15538 SI SI1 15538 1.100000 28.08600
15539 SI 15539 SI SI1 15539 1.100000 28.08600
15540 SI 15540 SI SI1 15540 1.100000 28.08600
15541 SI 15541 SI SI1 15541 1.100000 28.08600
15542 SI 15542 SI SI1 15542 1.100000 28.08600
15543 SI 15543 SI SI1 15543 1.100000 28.08600
15544 SI 15544 SI SI1 15544 1.100000 28.08600
15545 SI 15545 SI SI1 15545 1.100000 28.08600
15546 SI 15546 SI SI1 15546 1.100000 28.08600
15547 SI 15547 SI SI1 15547 1.100000 28.08600
15548 SI 15548 SI SI1 15548 1.100000 28.08600
15549 SI 15549 SI SI1 15549 1.100000 28.08600
15550 SI 15550 SI SI1 15550 1.100000 28.08600
15551 SI 15551 SI SI1 15551 1.100000 28.08600
15552 SI 15552 SI SI1 15552 1.100000 28.08600
15553 SI 15553 SI SI1 15553 1.100000 28.08600
15554 SI 15554 SI SI1 15554 1.100000 28.08600
15555 SI 15555 SI SI1 15555 1.100000 28.08600
15556 SI 15556 SI SI1 15556 1.100000 28.08600
15557 SI 15557 SI SI1 15557 1.100000 28.08600
15558 SI 15558 SI SI1 15558 1.100000 28.08600
15559 SI 15559 SI SI1 15559 1.100000 28.08600
15560 SI 15560 SI SI1 15560 1.100000 28.08600
15561 SI 15561 SI SI1 15561 1.100000 28.08600
15562 SI 15562 SI SI1 15562 1.100000 28.08600
15563 SI 15563 SI SI1 15563 1.100000 28.08600
15564 SI 15564 SI SI1 15564 1.100000 28.08600
15565 SI 15565 SI SI1 15565 1.100000 28.08600
15566 SI 15566 SI SI1 15566 1.100000 28.08600
15567 SI 15567 SI SI1 15567 1.100000 28.08600
15568 SI 15568 SI SI1 15568 1.100000 28.08600
15569 SI 15569 SI SI1 15569 1.100000 28.08600
15570 SI 15570 SI SI1 15570 1.100000 28.08600
15571 SI 15571 SI SI1 15571 1.100000 28.08600
15572 SI 15572 SI SI1 15572 1.100000 28.08600
15573 SI 15573 SI SI1 15573 1.100000 28.08600
15574 SI 15574 SI SI1 15574 1.100000 28.08600
15575 SI 15575 SI SI1 15575 1.100000 28.08600
15576 SI 15576 SI SI1 15576 1.100000 28.08600
15577 SI 15577 SI SI1 15577 1.100000 28.08600
15578 SI 15578 SI SI1 15578 1.100000 28.08600
15579 SI 15579 SI SI1 15579 1.100000 28.08600
15580 SI 15580 SI SI1 15580 1.100000 28.08600
15581 SI 15581 SI SI1 15581 1.100000 28.08600
15582 SI 15582 SI SI1 15582 1.100000 28.08600
15583 SI 15583 SI SI1 15583 1.100000 28.08600
15584 SI 15584 SI SI1 15584 1.100000 28.08600
15585 SI 15585 SI SI1 15585 1.100000 28.08600
15586 SI 15586 SI SI1 15586 1.100000 28.08600
15587 SI 15587 SI SI1 15587 1.100000 28.08600
15588 SI 15588 SI SI1 15588 1.100000 28.08600
15589 SI 15589 SI SI1 15589 1.100000 28.08600
15590 SI 15590 SI SI1 15590 1.100000 28.08600
15591 SI 15591 SI SI1 15591 1.100000 28.08600
15592 SI 15592 SI SI1 15592 1.100000 28.08600
15593 SI 15593 SI SI1 15593 1.100000 28.08600
15594 SI 15594 SI SI1 15594 1.100000 28.08600
15595 SI 15595 SI SI1 15595 1.100000 28.08600
15596 SI 15596 SI SI1 15596 1.100000 28.08600
15597 SI 15597 SI SI1 15597 1.100000 28.08600
15598 SI 15598 SI SI1 15598 1.100000 28.08600
15599 SI 15599 SI SI1 15599 1.100000 28.08600
15600 SI 15600 SI SI1 15600 1.100000 28.08600
15601 SI 15601 SI SI1 15601 1.100000 28.08600
15602 SI 15602 SI SI1 15602 1.100000 28.08600
15603 SI 15603 SI SI1 15603 1.100000 28.08600
15604 SI 15604 SI SI1 15604 1.100000 28.08600
15605 SI 15605 SI SI1 15605 1.100000 28.08600
15606 SI 15606 SI SI1 15606 1.100000 28.08600
15607 SI 15607 SI SI1 15607 1.100000 28.08600
15608 SI 15608 SI SI1 15608 1.100000 28.08600
15609 SI 15609 SI SI1 15609 1.100000 28.08600
15610 SI 15610 SI SI1 15610 1.100000 28.08600
15611 SI 15611 SI SI1 15611 1.100000 28.08600
15612 SI 15612 SI SI1 15612 1.100000 28.08600
15613 SI 15613 SI SI1 15613 1.100000 28.08600
15614 SI 15614 SI SI1 15614 1.100000 28.08600
15615 SI 15615 SI SI1 15615 1.100000 28.08600
15616 SI 15616 SI SI1 15616 1.100000 28.08600
15617 SI 15617 SI SI1 15617 1.100000 28.08600
15618 SI 15618 SI SI1 15618 1.100000 28.08600
15619 SI 15619 SI SI1 15619 1.100000 28.08600
15620 SI 15620 SI SI1 15620 1.100000 28.08600
15621 SI 15621 SI SI1 15621 1.100000 28.08600
15622 SI 15622 SI SI1 15622 1.100000 28.08600
15623 SI 15623 SI SI1 15623 1.100000 28.08600
15624 SI 15624 SI SI1 15624 1.100000 28.08600
15625 SI 15625 SI SI1 15625 1.100000 28.08600
15626 SI 15626 SI SI1 15626 1.100000 28.08600
15627 SI 15627 SI SI1 15627 1.100000 28.08600
15628 SI 15628 SI SI1 15628 1.100000 28.08600
15629 SI 15629 SI SI1 15629 1.100000 28.08600
15630 SI 15630 SI SI1 15630 1.100000 28.08600
15631 SI 15631 SI SI1 15631 1.100000 28.08600
15632 SI 15632 SI SI1 15632 1.100000 28.08600
15633 SI 15633 SI SI1 15633 1.100000 28.08600
15634 SI 15634 SI SI1 15634 1.100000 28.08600
15635 SI 15635 SI SI1 15635 1.100000 28.08600
15636 SI 15636 SI SI1 15636 1.100000 28.08600
15637 SI 15637 SI SI1 15637 1.100000 28.08600
15638 SI 15638 SI SI1 15638 1.100000 28.08600
15639 SI 15639 SI SI1 15639 1.100000 28.08600
15640 SI 15640 SI SI1 15640 1.100000 28.08600
15641 SI 15641 SI SI1 15641 1.100000 28.08600
15642 SI 15642 SI SI1 15642 1.100000 28.08600
15643 SI 15643 SI SI1 15643 1.100000 28.08600
15644 SI 15644 SI SI1 15644 1.100000 28.08600
15645 SI 15645 SI SI1 15645 1.100000 28.08600
15646 SI 15646 SI SI1 15646 1.100000 28.08600
15647 SI 15647 SI SI1 15647 1.100000 28.08600
15648 SI 15648 SI SI1 15648 1.100000 28.08600
15649 SI 15649 SI SI1 15649 1.100000 28.08600
15650 SI 15650 SI SI1 15650 1.100000 28.08600
15651 SI 15651 SI SI1 15651 1.100000 28.08600
15652 SI 15652 SI SI1 15652 1.100000 28.08600
15653 SI 15653 SI SI1 15653 1.100000 28.08600
15654 SI 15654 SI SI1 15654 1.100000 28.08600
15655 SI 15655 SI SI1 15655 1.100000 28.08600
15656 SI 15656 SI SI1 15656 1.100000 28.08600
15657 SI 15657 SI SI1 15657 1.100000 28.08600
15658 SI 15658 SI SI1 15658 1.100000 28.08600
15659 SI 15659 SI SI1 15659 1.100000 28.08600
15660 SI 15660 SI SI1 15660 1.100000 28.08600
15661 SI 15661 SI SI1 15661 1.100000 28.08600
15662 SI 15662 SI SI1 15662 1.100000 28.08600
15663 SI 15663 SI SI1 15663 1.100000 28.08600
15664 SI 15664 SI SI1 15664 1.100000 28.08600
15665 SI 15665 SI SI1 15665 1.100000 28.08600
15666 SI 15666 SI SI1 15666 1.100000 28.08600
15667 SI 15667 SI SI1 15667 1.100000 28.08600
15668 SI 15668 SI SI1 15668 1.100000 28.08600
15669 SI 15669 SI SI1 15669 1.100000 28.08600
15670 SI 15670 SI SI1 15670 1.100000 28.08600
15671 SI 15671 SI SI1 15671 1.100000 28.08600
15672 SI 15672 SI SI1 15672 1.100000 28.08600
15673 SI 15673 SI SI1 15673 1.100000 28.08600
15674 SI 15674 SI SI1 15674 1.100000 28.08600
15675 SI 15675 SI SI1 15675 1.100000 28.08600
15676 SI 15676 SI SI1 15676 1.100000 28.08600
15677 SI 15677 SI SI1 15677 1.100000 28.08600
15678 SI 15678 SI SI1 15678 1.100000 28.08600
15679 SI 15679 SI SI1 15679 1.100000 28.08600
15680 SI 15680 SI SI1 15680 1.100000 28.08600
15681 SI 15681 SI SI1 15681 1.100000 28.08600
15682 SI 15682 SI SI1 15682 1.100000 28.08600
15683 SI 15683 SI SI1 15683 1.100000 28.08600
15684 SI 15684 SI SI1 15684 1.100000 28.08600
15685 SI 15685 SI SI1 15685 1.100000 28.08600
15686 SI 15686 SI SI1 15686 1.100000 28.08600
15687 SI 15687 SI SI1 15687 1.100000 28.08600
15688 SI 15688 SI SI1 15688 1.100000 28.08600
15689 SI 15689 SI SI1 15689 1.100000 28.08600
15690 SI 15690 SI SI1 15690 1.100000 28.08600
15691 SI 15691 SI SI1 15691 1.100000 28.08600
15692 SI 15692 SI SI1 15692 1.100000 28.08600
15693 SI 15693 SI SI1 15693 1.100000 28.08600
15694 SI 15694 SI SI1 15694 1.100000 28.08600
15695 SI 15695 SI SI1 15695 1.100000 28.08600
15696 SI 15696 SI SI1 15696 1.100000 28.08600
15697 SI 15697 SI SI1 15697 1.100000 28.08600
15698 SI 15698 SI SI1 15698 1.100000 28.08600
15699 SI 15699 SI SI1 15699 1.100000 28.08600
15700 SI 15700 SI SI1 15700 1.100000 28.08600
15701 SI 15701 SI SI1 15701 1.100000 28.08600
15702 SI 15702 SI SI1 15702 1.100000 28.08600
15703 SI 15703 SI SI1 15703 1.100000 28.08600
15704 SI 15704 SI SI1 15704 1.100000 28.08600
15705 SI 15705 SI SI1 15705 1.100000 28.08600
15706 SI 15706 SI SI1 15706 1.100000 28.08600
15707 SI 15707 SI SI1 15707 1.100000 28.08600
15708 SI 15708 SI SI1 15708 1.100000 28.08600
15709 SI 15709 SI SI1 15709 1.100000 28.08600
15710 SI 15710 SI SI1 15710 1.100000 28.08600
15711 SI 15711 SI SI1 15711 1.100000 28.08600
15712 SI 15712 SI SI1 15712 1.100000 28.08600
15713 SI 15713 SI SI1 15713 1.100000 28.08600
15714 SI 15714 SI SI1 15714 1.100000 28.08600
15715 SI 15715 SI SI1 15715 1.100000 28.08600
15716 SI 15716 SI SI1 15716 1.100000 28.08600
15717 SI 15717 SI SI1 15717 1.100000 28.08600
15718 SI 15718 SI SI1 15718 1.100000 28.08600
15719 SI 15719 SI SI1 15719 1.100000 28.08600
15720 SI 15720 SI SI1 15720 1.100000 28.08600
15721 SI 15721 SI SI1 15721 1.100000 28.08600
15722 SI 15722 SI SI1 15722 1.100000 28.08600
15723 SI 15723 SI SI1 15723 1.100000 28.08600
15724 SI 15724 SI SI1 15724 1.100000 28.08600
15725 SI 15725 SI SI1 15725 1.100000 28.08600
15726 SI 15726 SI SI1 15726 1.100000 28.08600
15727 SI 15727 SI SI1 15727 1.100000 28.08600
15728 SI 15728 SI SI1 15728 1.100000 28.08600
15729 SI 15729 SI SI1 15729 1.100000 28.08600
15730 SI 15730 SI SI1 15730 1.100000 28.08600
15731 SI 15731 SI SI1 15731 1.100000 28.08600
15732 SI 15732 SI SI1 15732 1.100000 28.08600
15733 SI 15733 SI SI1 15733 1.100000 28.08600
15734 SI 15734 SI SI1 15734 1.100000 28.08600
15735 SI 15735 SI SI1 15735 1.100000 28.08600
15736 SI 15736 SI SI1 15736 1.100000 28.08600
15737 SI 15737 SI SI1 15737 1.100000 28.08600
15738 SI 15738 SI SI1 15738 1.100000 28.08600
15739 SI 15739 SI SI1 15739 1.100000 28.08600
15740 SI 15740 SI SI1 15740 1.100000 28.08600
15741 SI 15741 SI SI1 15741 1.100000 28.08600
15742 SI 15742 SI SI1 15742 1.100000 28.08600
15743 SI 15743 SI SI1 15743 1.100000 28.08600
15744 SI 15744 SI SI1 15744 1.100000 28.08600
15745 SI 15745 SI SI1 15745 1.100000 28.08600
15746 SI 15746 SI SI1 15746 1.100000 28.08600
15747 SI 15747 SI SI1 15747 1.100000 28.08600
15748 SI 15748 SI SI1 15748 1.100000 28.08600
15749 SI 15749 SI SI1 15749 1.100000 28.08600
15750 SI 15750 SI SI1 15750 1.100000 28.08600
15751 SI 15751 SI SI1 15751 1.100000 28.08600
15752 SI 15752 SI SI1 15752 1.100000 28.08600
15753 SI 15753 SI SI1 15753 1.100000 28.08600
15754 SI 15754 SI SI1 15754 1.100000 28.08600
15755 SI 15755 SI SI1 15755 1.100000 28.08600
15756 SI 15756 SI SI1 15756 1.100000 28.08600
15757 SI 15757 SI SI1 15757 1.100000 28.08600
15758 SI 15758 SI SI1 15758 1.100000 28.08600
15759 SI 15759 SI SI1 15759 1.100000 28.08600
15760 SI 15760 SI SI1 15760 1.100000 28.08600
15761 SI 15761 SI SI1 15761 1.100000 28.08600
15762 SI 15762 SI SI1 15762 1.100000 28.08600
15763 SI 15763 SI SI1 15763 1.100000 28.08600
15764 SI 15764 SI SI1 15764 1.100000 28.08600
15765 SI 15765 SI SI1 15765 1.100000 28.08600
15766 SI 15766 SI SI1 15766 1.100000 28.08600
15767 SI 15767 SI SI1 15767 1.100000 28.08600
15768 SI 15768 SI SI1 15768 1.100000 28.08600
15769 SI 15769 SI SI1 15769 1.100000 28.08600
15770 SI 15770 SI SI1 15770 1.100000 28.08600
15771 SI 15771 SI SI1 15771 1.100000 28.08600
15772 SI 15772 SI SI1 15772 1.100000 28.08600
15773 SI 15773 SI SI1 15773 1.100000 28.08600
15774 SI 15774 SI SI1 15774 1.100000 28.08600
15775 SI 15775 SI SI1 15775 1.100000 28.08600
15776 SI 15776 SI SI1 15776 1.100000 28.08600
15777 SI 15777 SI SI1 15777 1.100000 28.08600
15778 SI 15778 SI SI1 15778 1.100000 28.08600
15779 SI 15779 SI SI1 15779 1.100000 28.08600
15780 SI 15780 SI SI1 15780 1.100000 28.08600
15781 SI 15781 SI SI1 15781 1.100000 28.08600
15782 SI 15782 SI SI1 15782 1.100000 28.08600
15783 SI 15783 SI SI1 15783 1.100000 28.08600
15784 SI 15784 SI SI1 15784 1.100000 28.08600
15785 SI 15785 SI SI1 15785 1.100000 28.08600
15786 SI 15786 SI SI1 15786 1.100000 28.08600
15787 SI 15787 SI SI1 15787 1.100000 28.08600
15788 SI 15788 SI SI1 15788 1.100000 28.08600
15789 SI 15789 SI SI1 15789 1.100000 28.08600
15790 SI 15790 SI SI1 15790 1.100000 28.08600
15791 SI 15791 SI SI1 15791 1.100000 28.08600
15792 SI 15792 SI SI1 15792 1.100000 28.08600
15793 SI 15793 SI SI1 15793 1.100000 28.08600
15794 SI 15794 SI SI1 15794 1.100000 28.08600
15795 SI 15795 SI SI1 15795 1.100000 28.08600
15796 SI 15796 SI SI1 15796 1.100000 28.08600
15797 SI 15797 SI SI1 15797 1.100000 28.08600
15798 SI 15798 SI SI1 15798 1.100000 28.08600
15799 SI 15799 SI SI1 15799 1.100000 28.08600
15800 SI 15800 SI SI1 15800 1.100000 28.08600
15801 SI 15801 SI SI1 15801 1.100000 28.08600
15802 SI 15802 SI SI1 15802 1.100000 28.08600
15803 SI 15803 SI SI1 15803 1.100000 28.08600
15804 SI 15804 SI SI1 15804 1.100000 28.08600
15805 SI 15805 SI SI1 15805 1.100000 28.08600
15806 SI 15806 SI SI1 15806 1.100000 28.08600
15807 SI 15807 SI SI1 15807 1.100000 28.08600
15808 SI 15808 SI SI1 15808 1.100000 28.08600
15809 SI 15809 SI SI1 15809 1.100000 28.08600
15810 SI 15810 SI SI1 15810 1.100000 28.08600
15811 SI 15811 SI SI1 15811 1.100000 28.08600
15812 SI 15812 SI SI1 15812 1.100000 28.08600
15813 SI 15813 SI SI1 15813 1.100000 28.08600
15814 SI 15814 SI SI1 15814 1.100000 28.08600
15815 SI 15815 SI SI1 15815 1.100000 28.08600
15816 SI 15816 SI SI1 15816 1.100000 28.08600
15817 SI 15817 SI SI1 15817 1.100000 28.08600
15818 SI 15818 SI SI1 15818 1.100000 28.08600
15819 SI 15819 SI SI1 15819 1.100000 28.08600
15820 SI 15820 SI SI1 15820 1.100000 28.08600
15821 SI 15821 SI SI1 15821 1.100000 28.08600
15822 SI 15822 SI SI1 15822 1.100000 28.08600
15823 SI 15823 SI SI1 15823 1.100000 28.08600
15824 SI 15824 SI SI1 15824 1.100000 28.08600
15825 SI 15825 SI SI1 15825 1.100000 28.08600
15826 SI 15826 SI SI1 15826 1.100000 28.08600
15827 SI 15827 SI SI1 15827 1.100000 28.08600
15828 SI 15828 SI SI1 15828 1.100000 28.08600
15829 SI 15829 SI SI1 15829 1.100000 28.08600
15830 SI 15830 SI SI1 15830 1.100000 28.08600
15831 SI 15831 SI SI1 15831 1.100000 28.08600
15832 SI 15832 SI SI1 15832 1.100000 28.08600
15833 SI 15833 SI SI1 15833 1.100000 28.08600
15834 SI 15834 SI SI1 15834 1.100000 28.08600
15835 SI 15835 SI SI1 15835 1.100000 28.08600
15836 SI 15836 SI SI1 15836 1.100000 28.08600
15837 SI 15837 SI SI1 15837 1.100000 28.08600
15838 SI 15838 SI SI1 15838 1.100000 28.08600
15839 SI 15839 SI SI1 15839 1.100000 28.08600
15840 SI 15840 SI SI1 15840 1.100000 28.08600
15841 SI 15841 SI SI1 15841 1.100000 28.08600
15842 SI 15842 SI SI1 15842 1.100000 28.08600
15843 SI 15843 SI SI1 15843 1.100000 28.08600
15844 SI 15844 SI SI1 15844 1.100000 28.08600
15845 SI 15845 SI SI1 15845 1.100000 28.08600
15846 SI 15846 SI SI1 15846 1.100000 28.08600
15847 SI 15847 SI SI1 15847 1.100000 28.08600
15848 SI 15848 SI SI1 15848 1.100000 28.08600
15849 SI 15849 SI SI1 15849 1.100000 28.08600
15850 SI 15850 SI SI1 15850 1.100000 28.08600
15851 SI 15851 SI SI1 15851 1.100000 28.08600
15852 SI 15852 SI SI1 15852 1.100000 28.08600
15853 SI 15853 SI SI1 15853 1.100000 28.08600
15854 SI 15854 SI SI1 15854 1.100000 28.08600
15855 SI 15855 SI SI1 15855 1.100000 28.08600
15856 SI 15856 SI SI1 15856 1.100000 28.08600
15857 SI 15857 SI SI1 15857 1.100000 28.08600
15858 SI 15858 SI SI1 15858 1.100000 28.08600
15859 SI 15859 SI SI1 15859 1.100000 28.08600
15860 SI 15860 SI SI1 15860 1.100000 28.08600
15861 SI 15861 SI SI1 15861 1.100000 28.08600
15862 SI 15862 SI SI1 15862 1.100000 28.08600
15863 SI 15863 SI SI1 15863 1.100000 28.08600
15864 SI 15864 SI SI1 15864 1.100000 28.08600
15865 SI 15865 SI SI1 15865 1.100000 28.08600
15866 SI 15866 SI SI1 15866 1.100000 28.08600
15867 SI 15867 SI SI1 15867 1.100000 28.08600
15868 SI 15868 SI SI1 15868 1.100000 28.08600
15869 SI 15869 SI SI1 15869 1.100000 28.08600
15870 SI 15870 SI SI1 15870 1.100000 28.08600
15871 SI 15871 SI SI1 15871 1.100000 28.08600
15872 SI 15872 SI SI1 15872 1.100000 28.08600
15873 SI 15873 SI SI1 15873 1.100000 28.08600
15874 SI 15874 SI SI1 15874 1.100000 28.08600
15875 SI 15875 SI SI1 15875 1.100000 28.08600
15876 SI 15876 SI SI1 15876 1.100000 28.08600
15877 SI 15877 SI SI1 15877 1.100000 28.08600
15878 SI 15878 SI SI1 15878 1.100000 28.08600
15879 SI 15879 SI SI1 15879 1.100000 28.08600
15880 SI 15880 SI SI1 15880 1.100000 28.08600
15881 SI 15881 SI SI1 15881 1.100000 28.08600
15882 SI 15882 SI SI1 15882 1.100000 28.08600
15883 SI 15883 SI SI1 15883 1.100000 28.08600
15884 SI 15884 SI SI1 15884 1.100000 28.08600
15885 SI 15885 SI SI1 15885 1.100000 28.08600
15886 SI 15886 SI SI1 15886 1.100000 28.08600
15887 SI 15887 SI SI1 15887 1.100000 28.08600
15888 SI 15888 SI SI1 15888 1.100000 28.08600
15889 SI 15889 SI SI1 15889 1.100000 28.08600
15890 SI 15890 SI SI1 15890 1.100000 28.08600
15891 SI 15891 SI SI1 15891 1.100000 28.08600
15892 SI 15892 SI SI1 15892 1.100000 28.08600
15893 SI 15893 SI SI1 15893 1.100000 28.08600
15894 SI 15894 SI SI1 15894 1.100000 28.08600
15895 SI 15895 SI SI1 15895 1.100000 28.08600
15896 SI 15896 SI SI1 15896 1.100000 28.08600
15897 SI 15897 SI SI1 15897 1.100000 28.08600
15898 SI 15898 SI SI1 15898 1.100000 28.08600
15899 SI 15899 SI SI1 15899 1.100000 28.08600
15900 SI 15900 SI SI1 15900 1.100000 28.08600
15901 SI 15901 SI SI1 15901 1.100000 28.08600
15902 SI 15902 SI SI1 15902 1.100000 28.08600
15903 SI 15903 SI SI1 15903 1.100000 28.08600
15904 SI 15904 SI SI1 15904 1.100000 28.08600
15905 SI 15905 SI SI1 15905 1.100000 28.08600
15906 SI 15906 SI SI1 15906 1.100000 28.08600
15907 SI 15907 SI SI1 15907 1.100000 28.08600
15908 SI 15908 SI SI1 15908 1.100000 28.08600
15909 SI 15909 SI SI1 15909 1.100000 28.08600
15910 SI 15910 SI SI1 15910 1.100000 28.08600
15911 SI 15911 SI SI1 15911 1.100000 28.08600
15912 SI 15912 SI SI1 15912 1.100000 28.08600
15913 SI 15913 SI SI1 15913 1.100000 28.08600
15914 SI 15914 SI SI1 15914 1.100000 28.08600
15915 SI 15915 SI SI1 15915 1.100000 28.08600
15916 SI 15916 SI SI1 15916 1.100000 28.08600
15917 SI 15917 SI SI1 15917 1.100000 28.08600
15918 SI 15918 SI SI1 15918 1.100000 28.08600
15919 SI 15919 SI SI1 15919 1.100000 28.08600
15920 SI 15920 SI SI1 15920 1.100000 28.08600
15921 SI 15921 SI SI1 15921 1.100000 28.08600
15922 SI 15922 SI SI1 15922 1.100000 28.08600
15923 SI 15923 SI SI1 15923 1.100000 28.08600
15924 SI 15924 SI SI1 15924 1.100000 28.08600
15925 SI 15925 SI SI1 15925 1.100000 28.08600
15926 SI 15926 SI SI1 15926 1.100000 28.08600
15927 SI 15927 SI SI1 15927 1.100000 28.08600
15928 SI 15928 SI SI1 15928 1.100000 28.08600
15929 SI 15929 SI SI1 15929 1.100000 28.08600
15930 SI 15930 SI SI1 15930 1.100000 28.08600
15931 SI 15931 SI SI1 15931 1.100000 28.08600
15932 SI 15932 SI SI1 15932 1.100000 28.08600
15933 SI 15933 SI SI1 15933 1.100000 28.08600
15934 SI 15934 SI SI1 15934 1.100000 28.08600
15935 SI 15935 SI SI1 15935 1.100000 28.08600
15936 SI 15936 SI SI1 15936 1.100000 28.08600
15937 SI 15937 SI SI1 15937 1.100000 28.08600
15938 SI 15938 SI SI1 15938 1.100000 28.08600
15939 SI 15939 SI SI1 15939 1.100000 28.08600
15940 SI 15940 SI SI1 15940 1.100000 28.08600
15941 SI 15941 SI SI1 15941 1.100000 28.08600
15942 SI 15942 SI SI1 15942 1.100000 28.08600
15943 SI 15943 SI SI1 15943 1.100000 28.08600
15944 SI 15944 SI SI1 15944 1.100000 28.08600
15945 SI 15945 SI SI1 15945 1.100000 28.08600
15946 SI 15946 SI SI1 15946 1.100000 28.08600
15947 SI 15947 SI SI1 15947 1.100000 28.08600
15948 SI 15948 SI SI1 15948 1.100000 28.08600
15949 SI 15949 SI SI1 15949 1.100000 28.08600
15950 SI 15950 SI SI1 15950 1.100000 28.08600
15951 SI 15951 SI SI1 15951 1.100000 28.08600
15952 SI 15952 SI SI1 15952 1.100000 28.08600
15953 SI 15953 SI SI1 15953 1.100000 28.08600
15954 SI 15954 SI SI1 15954 1.100000 28.08600
15955 SI 15955 SI SI1 15955 1.100000 28.08600
15956 SI 15956 SI SI1 15956 1.100000 28.08600
15957 SI 15957 SI SI1 15957 1.100000 28.08600
15958 SI 15958 SI SI1 15958 1.100000 28.08600
15959 SI 15959 SI SI1 15959 1.100000 28.08600
15960 SI 15960 SI SI1 15960 1.100000 28.08600
15961 SI 15961 SI SI1 15961 1.100000 28.08600
15962 SI 15962 SI SI1 15962 1.100000 28.08600
15963 SI 15963 SI SI1 15963 1.100000 28.08600
15964 SI 15964 SI SI1 15964 1.100000 28.08600
15965 SI 15965 SI SI1 15965 1.100000 28.08600
15966 SI 15966 SI SI1 15966 1.100000 28.08600
15967 SI 15967 SI SI1 15967 1.100000 28.08600
15968 SI 15968 SI SI1 15968 1.100000 28.08600
15969 SI 15969 SI SI1 15969 1.100000 28.08600
15970 SI 15970 SI SI1 15970 1.100000 28.08600
15971 SI 15971 SI SI1 15971 1.100000 28.08600
15972 SI 15972 SI SI1 15972 1.100000 28.08600
15973 SI 15973 SI SI1 15973 1.100000 28.08600
15974 SI 15974 SI SI1 15974 1.100000 28.08600
15975 SI 15975 SI SI1 15975 1.100000 28.08600
15976 SI 15976 SI SI1 15976 1.100000 28.08600
15977 SI 15977 SI SI1 15977 1.100000 28.08600
15978 SI 15978 SI SI1 15978 1.100000 28.08600
15979 SI 15979 SI SI1 15979 1.100000 28.08600
15980 SI 15980 SI SI1 15980 1.100000 28.08600
15981 SI 15981 SI SI1 15981 1.100000 28.08600
15982 SI 15982 SI SI1 15982 1.100000 28.08600
15983 SI 15983 SI SI1 15983 1.100000 28.08600
15984 SI 15984 SI SI1 15984 1.100000 28.08600
15985 SI 15985 SI SI1 15985 1.100000 28.08600
15986 SI 15986 SI SI1 15986 1.100000 28.08600
15987 SI 15987 SI SI1 15987 1.100000 28.08600
15988 SI 15988 SI SI1 15988 1.100000 28.08600
15989 SI 15989 SI SI1 15989 1.100000 28.08600
15990 SI 15990 SI SI1 15990 1.100000 28.08600
15991 SI 15991 SI SI1 15991 1.100000 28.08600
15992 SI 15992 SI SI1 15992 1.100000 28.08600
15993 SI 15993 SI SI1 15993 1.100000 28.08600
15994 SI 15994 SI SI1 15994 1.100000 28.08600
15995 SI 15995 SI SI1 15995 1.100000 28.08600
15996 SI 15996 SI SI1 15996 1.100000 28.08600
15997 SI 15997 SI SI1 15997 1.100000 28.08600
15998 SI 15998 SI SI1 15998 1.100000 28.08600
15999 SI 15999 SI SI1 15999 1.100000 28.08600
16000 SI 16000 SI SI1 16000 1.100000 28.08600
16001 SI 16001 SI SI1 16001 1.100000 28.08600
16002 SI 16002 SI SI1 16002 1.100000 28.08600
16003 SI 16003 SI SI1 16003 1.100000 28.08600
16004 SI 16004 SI SI1 16004 1.100000 28.08600
16005 SI 16005 SI SI1 16005 1.100000 28.08600
16006 SI 16006 SI SI1 16006 1.100000 28.08600
16007 SI 16007 SI SI1 16007 1.100000 28.08600
16008 SI 16008 SI SI1 16008 1.100000 28.08600
16009 SI 16009 SI SI1 16009 1.100000 28.08600
16010 SI 16010 SI SI1 16010 1.100000 28.08600
16011 SI 16011 SI SI1 16011 1.100000 28.08600
16012 SI 16012 SI SI1 16012 1.100000 28.08600
16013 SI 16013 SI SI1 16013 1.100000 28.08600
16014 SI 16014 SI SI1 16014 1.100000 28.08600
16015 SI 16015 SI SI1 16015 1.100000 28.08600
16016 SI 16016 SI SI1 16016 1.100000 28.08600
16017 SI 16017 SI SI1 16017 1.100000 28.08600
16018 SI 16018 SI SI1 16018 1.100000 28.08600
16019 SI 16019 SI SI1 16019 1.100000 28.08600
16020 SI 16020 SI SI1 16020 1.100000 28.08600
16021 SI 16021 SI SI1 16021 1.100000 28.08600
16022 SI 16022 SI SI1 16022 1.100000 28.08600
16023 SI 16023 SI SI1 16023 1.100000 28.08600
16024 SI 16024 SI SI1 16024 1.100000 28.08600
16025 SI 16025 SI SI1 16025 1.100000 28.08600
16026 SI 16026 SI SI1 16026 1.100000 28.08600
16027 SI 16027 SI SI1 16027 1.100000 28.08600
16028 SI 16028 SI SI1 16028 1.100000 28.08600
16029 SI 16029 SI SI1 16029 1.100000 28.08600
16030 SI 16030 SI SI1 16030 1.100000 28.08600
16031 SI 16031 SI SI1 16031 1.100000 28.08600
16032 SI 16032 SI SI1 16032 1.100000 28.08600
16033 SI 16033 SI SI1 16033 1.100000 28.08600
16034 SI 16034 SI SI1 16034 1.100000 28.08600
16035 SI 16035 SI SI1 16035 1.100000 28.08600
16036 SI 16036 SI SI1 16036 1.100000 28.08600
16037 SI 16037 SI SI1 16037 1.100000 28.08600
16038 SI 16038 SI SI1 16038 1.100000 28.08600
16039 SI 16039 SI SI1 16039 1.100000 28.08600
16040 SI 16040 SI SI1 16040 1.100000 28.08600
16041 SI 16041 SI SI1 16041 1.100000 28.08600
16042 SI 16042 SI SI1 16042 1.100000 28.08600
16043 SI 16043 SI SI1 16043 1.100000 28.08600
16044 SI 16044 SI SI1 16044 1.100000 28.08600
16045 SI 16045 SI SI1 16045 1.100000 28.08600
16046 SI 16046 SI SI1 16046 1.100000 28.08600
16047 SI 16047 SI SI1 16047 1.100000 28.08600
16048 SI 16048 SI SI1 16048 1.100000 28.08600
16049 SI 16049 SI SI1 16049 1.100000 28.08600
16050 SI 16050 SI SI1 16050 1.100000 28.08600
16051 SI 16051 SI SI1 16051 1.100000 28.08600
16052 SI 16052 SI SI1 16052 1.100000 28.08600
16053 SI 16053 SI SI1 16053 1.100000 28.08600
16054 SI 16054 SI SI1 16054 1.100000 28.08600
16055 SI 16055 SI SI1 16055 1.100000 28.08600
16056 SI 16056 SI SI1 16056 1.100000 28.08600
16057 SI 16057 SI SI1 16057 1.100000 28.08600
16058 SI 16058 SI SI1 16058 1.100000 28.08600
16059 SI 16059 SI SI1 16059 1.100000 28.08600
16060 SI 16060 SI SI1 16060 1.100000 28.08600
16061 SI 16061 SI SI1 16061 1.100000 28.08600
16062 SI 16062 SI SI1 16062 1.100000 28.08600
16063 SI 16063 SI SI1 16063 1.100000 28.08600
16064 SI 16064 SI SI1 16064 1.100000 28.08600
16065 SI 16065 SI SI1 16065 1.100000 28.08600
16066 SI 16066 SI SI1 16066 1.100000 28.08600
16067 SI 16067 SI SI1 16067 1.100000 28.08600
16068 SI 16068 SI SI1 16068 1.100000 28.08600
16069 SI 16069 SI SI1 16069 1.100000 28.08600
16070 SI 16070 SI SI1 16070 1.100000 28.08600
16071 SI 16071 SI SI1 16071 1.100000 28.08600
16072 SI 16072 SI SI1 16072 1.100000 28.08600
16073 SI 16073 SI SI1 16073 1.100000 28.08600
16074 SI 16074 SI SI1 16074 1.100000 28.08600
16075 SI 16075 SI SI1 16075 1.100000 28.08600
16076 SI 16076 SI SI1 16076 1.100000 28.08600
16077 SI 16077 SI SI1 16077 1.100000 28.08600
16078 SI 16078 SI SI1 16078 1.100000 28.08600
16079 SI 16079 SI SI1 16079 1.100000 28.08600
16080 SI 16080 SI SI1 16080 1.100000 28.08600
16081 SI 16081 SI SI1 16081 1.100000 28.08600
16082 SI 16082 SI SI1 16082 1.100000 28.08600
16083 SI 16083 SI SI1 16083 1.100000 28.08600
16084 SI 16084 SI SI1 16084 1.100000 28.08600
16085 SI 16085 SI SI1 16085 1.100000 28.08600
16086 SI 16086 SI SI1 16086 1.100000 28.08600
16087 SI 16087 SI SI1 16087 1.100000 28.08600
16088 SI 16088 SI SI1 16088 1.100000 28.08600
16089 SI 16089 SI SI1 16089 1.100000 28.08600
16090 SI 16090 SI SI1 16090 1.100000 28.08600
16091 SI 16091 SI SI1 16091 1.100000 28.08600
16092 SI 16092 SI SI1 16092 1.100000 28.08600
16093 SI 16093 SI SI1 16093 1.100000 28.08600
16094 SI 16094 SI SI1 16094 1.100000 28.08600
16095 SI 16095 SI SI1 16095 1.100000 28.08600
16096 SI 16096 SI SI1 16096 1.100000 28.08600
16097 SI 16097 SI SI1 16097 1.100000 28.08600
16098 SI 16098 SI SI1 16098 1.100000 28.08600
16099 SI 16099 SI SI1 16099 1.100000 28.08600
16100 SI 16100 SI SI1 16100 1.100000 28.08600
16101 SI 16101 SI SI1 16101 1.100000 28.08600
16102 SI 16102 SI SI1 16102 1.100000 28.08600
16103 SI 16103 SI SI1 16103 1.100000 28.08600
16104 SI 16104 SI SI1 16104 1.100000 28.08600
16105 SI 16105 SI SI1 16105 1.100000 28.08600
16106 SI 16106 SI SI1 16106 1.100000 28.08600
16107 SI 16107 SI SI1 16107 1.100000 28.08600
16108 SI 16108 SI SI1 16108 1.100000 28.08600
16109 SI 16109 SI SI1 16109 1.100000 28.08600
16110 SI 16110 SI SI1 16110 1.100000 28.08600
16111 SI 16111 SI SI1 16111 1.100000 28.08600
16112 SI 16112 SI SI1 16112 1.100000 28.08600
16113 SI 16113 SI SI1 16113 1.100000 28.08600
16114 SI 16114 SI SI1 16114 1.100000 28.08600
16115 SI 16115 SI SI1 16115 1.100000 28.08600
16116 SI 16116 SI SI1 16116 1.100000 28.08600
16117 SI 16117 SI SI1 16117 1.100000 28.08600
16118 SI 16118 SI SI1 16118 1.100000 28.08600
16119 SI 16119 SI SI1 16119 1.100000 28.08600
16120 SI 16120 SI SI1 16120 1.100000 28.08600
16121 SI 16121 SI SI1 16121 1.100000 28.08600
16122 SI 16122 SI SI1 16122 1.100000 28.08600
16123 SI 16123 SI SI1 16123 1.100000 28.08600
16124 SI 16124 SI SI1 16124 1.100000 28.08600
16125 SI 16125 SI SI1 16125 1.100000 28.08600
16126 SI 16126 SI SI1 16126 1.100000 28.08600
16127 SI 16127 SI SI1 16127 1.100000 28.08600
16128 SI 16128 SI SI1 16128 1.100000 28.08600
16129 SI 16129 SI SI1 16129 1.100000 28.08600
16130 SI 16130 SI SI1 16130 1.100000 28.08600
16131 SI 16131 SI SI1 16131 1.100000 28.08600
16132 SI 16132 SI SI1 16132 1.100000 28.08600
16133 SI 16133 SI SI1 16133 1.100000 28.08600
16134 SI 16134 SI SI1 16134 1.100000 28.08600
16135 SI 16135 SI SI1 16135 1.100000 28.08600
16136 SI 16136 SI SI1 16136 1.100000 28.08600
16137 SI 16137 SI SI1 16137 1.100000 28.08600
16138 SI 16138 SI SI1 16138 1.100000 28.08600
16139 SI 16139 SI SI1 16139 1.100000 28.08600
16140 SI 16140 SI SI1 16140 1.100000 28.08600
16141 SI 16141 SI SI1 16141 1.100000 28.08600
16142 SI 16142 SI SI1 16142 1.100000 28.08600
16143 SI 16143 SI SI1 16143 1.100000 28.08600
16144 SI 16144 SI SI1 16144 1.100000 28.08600
16145 SI 16145 SI SI1 16145 1.100000 28.08600
16146 SI 16146 SI SI1 16146 1.100000 28.08600
16147 SI 16147 SI SI1 16147 1.100000 28.08600
16148 SI 16148 SI SI1 16148 1.100000 28.08600
16149 SI 16149 SI SI1 16149 1.100000 28.08600
16150 SI 16150 SI SI1 16150 1.100000 28.08600
16151 SI 16151 SI SI1 16151 1.100000 28.08600
16152 SI 16152 SI SI1 16152 1.100000 28.08600
16153 SI 16153 SI SI1 16153 1.100000 28.08600
16154 SI 16154 SI SI1 16154 1.100000 28.08600
16155 SI 16155 SI SI1 16155 1.100000 28.08600
16156 SI 16156 SI SI1 16156 1.100000 28.08600
16157 SI 16157 SI SI1 16157 1.100000 28.08600
16158 SI 16158 SI SI1 16158 1.100000 28.08600
16159 SI 16159 SI SI1 16159 1.100000 28.08600
16160 SI 16160 SI SI1 16160 1.100000 28.08600
16161 SI 16161 SI SI1 16161 1.100000 28.08600
16162 SI 16162 SI SI1 16162 1.100000 28.08600
16163 SI 16163 SI SI1 16163 1.100000 28.08600
16164 SI 16164 SI SI1 16164 1.100000 28.08600
16165 SI 16165 SI SI1 16165 1.100000 28.08600
16166 SI 16166 SI SI1 16166 1.100000 28.08600
16167 SI 16167 SI SI1 16167 1.100000 28.08600
16168 SI 16168 SI SI1 16168 1.100000 28.08600
16169 SI 16169 SI SI1 16169 1.100000 28.08600
16170 SI 16170 SI SI1 16170 1.100000 28.08600
16171 SI 16171 SI SI1 16171 1.100000 28.08600
16172 SI 16172 SI SI1 16172 1.100000 28.08600
16173 SI 16173 SI SI1 16173 1.100000 28.08600
16174 SI 16174 SI SI1 16174 1.100000 28.08600
16175 SI 16175 SI SI1 16175 1.100000 28.08600
16176 SI 16176 SI SI1 16176 1.100000 28.08600
16177 SI 16177 SI SI1 16177 1.100000 28.08600
16178 SI 16178 SI SI1 16178 1.100000 28.08600
16179 SI 16179 SI SI1 16179 1.100000 28.08600
16180 SI 16180 SI SI1 16180 1.100000 28.08600
16181 SI 16181 SI SI1 16181 1.100000 28.08600
16182 SI 16182 SI SI1 16182 1.100000 28.08600
16183 SI 16183 SI SI1 16183 1.100000 28.08600
16184 SI 16184 SI SI1 16184 1.100000 28.08600
16185 SI 16185 SI SI1 16185 1.100000 28.08600
16186 SI 16186 SI SI1 16186 1.100000 28.08600
16187 SI 16187 SI SI1 16187 1.100000 28.08600
16188 SI 16188 SI SI1 16188 1.100000 28.08600
16189 SI 16189 SI SI1 16189 1.100000 28.08600
16190 SI 16190 SI SI1 16190 1.100000 28.08600
16191 SI 16191 SI SI1 16191 1.100000 28.08600
16192 SI 16192 SI SI1 16192 1.100000 28.08600
16193 SI 16193 SI SI1 16193 1.100000 28.08600
16194 SI 16194 SI SI1 16194 1.100000 28.08600
16195 SI 16195 SI SI1 16195 1.100000 28.08600
16196 SI 16196 SI SI1 16196 1.100000 28.08600
16197 SI 16197 SI SI1 16197 1.100000 28.08600
16198 SI 16198 SI SI1 16198 1.100000 28.08600
16199 SI 16199 SI SI1 16199 1.100000 28.08600
16200 SI 16200 SI SI1 16200 1.100000 28.08600
16201 SI 16201 SI SI1 16201 1.100000 28.08600
16202 SI 16202 SI SI1 16202 1.100000 28.08600
16203 SI 16203 SI SI1 16203 1.100000 28.08600
16204 SI 16204 SI SI1 16204 1.100000 28.08600
16205 SI 16205 SI SI1 16205 1.100000 28.08600
16206 SI 16206 SI SI1 16206 1.100000 28.08600
16207 SI 16207 SI SI1 16207 1.100000 28.08600
16208 SI 16208 SI SI1 16208 1.100000 28.08600
16209 SI 16209 SI SI1 16209 1.100000 28.08600
16210 SI 16210 SI SI1 16210 1.100000 28.08600
16211 SI 16211 SI SI1 16211 1.100000 28.08600
16212 SI 16212 SI SI1 16212 1.100000 28.08600
16213 SI 16213 SI SI1 16213 1.100000 28.08600
16214 SI 16214 SI SI1 16214 1.100000 28.08600
16215 SI 16215 SI SI1 16215 1.100000 28.08600
16216 SI 16216 SI SI1 16216 1.100000 28.08600
16217 SI 16217 SI SI1 16217 1.100000 28.08600
16218 SI 16218 SI SI1 16218 1.100000 28.08600
16219 SI 16219 SI SI1 16219 1.100000 28.08600
16220 SI 16220 SI SI1 16220 1.100000 28.08600
16221 SI 16221 SI SI1 16221 1.100000 28.08600
16222 SI 16222 SI SI1 16222 1.100000 28.08600
16223 SI 16223 SI SI1 16223 1.100000 28.08600
16224 SI 16224 SI SI1 16224 1.100000 28.08600
16225 SI 16225 SI SI1 16225 1.100000 28.08600
16226 SI 16226 SI SI1 16226 1.100000 28.08600
16227 SI 16227 SI SI1 16227 1.100000 28.08600
16228 SI 16228 SI SI1 16228 1.100000 28.08600
16229 SI 16229 SI SI1 16229 1.100000 28.08600
16230 SI 16230 SI SI1 16230 1.100000 28.08600
16231 SI 16231 SI SI1 16231 1.100000 28.08600
16232 SI 16232 SI SI1 16232 1.100000 28.08600
16233 SI 16233 SI SI1 16233 1.100000 28.08600
16234 SI 16234 SI SI1 16234 1.100000 28.08600
16235 SI 16235 SI SI1 16235 1.100000 28.08600
16236 SI 16236 SI SI1 16236 1.100000 28.08600
16237 SI 16237 SI SI1 16237 1.100000 28.08600
16238 SI 16238 SI SI1 16238 1.100000 28.08600
16239 SI 16239 SI SI1 16239 1.100000 28.08600
16240 SI 16240 SI SI1 16240 1.100000 28.08600
16241 SI 16241 SI SI1 16241 1.100000 28.08600
16242 SI 16242 SI SI1 16242 1.100000 28.08600
16243 SI 16243 SI SI1 16243 1.100000 28.08600
16244 SI 16244 SI SI1 16244 1.100000 28.08600
16245 SI 16245 SI SI1 16245 1.100000 28.08600
16246 SI 16246 SI SI1 16246 1.100000 28.08600
16247 SI 16247 SI SI1 16247 1.100000 28.08600
16248 SI 16248 SI SI1 16248 1.100000 28.08600
16249 SI 16249 SI SI1 16249 1.100000 28.08600
16250 SI 16250 SI SI1 16250 1.100000 28.08600
16251 SI 16251 SI SI1 16251 1.100000 28.08600
16252 SI 16252 SI SI1 16252 1.100000 28.08600
16253 SI 16253 SI SI1 16253 1.100000 28.08600
16254 SI 16254 SI SI1 16254 1.100000 28.08600
16255 SI 16255 SI SI1 16255 1.100000 28.08600
16256 SI 16256 SI SI1 16256 1.100000 28.08600
16257 SI 16257 SI SI1 16257 1.100000 28.08600
16258 SI 16258 SI SI1 16258 1.100000 28.08600
16259 SI 16259 SI SI1 16259 1.100000 28.08600
16260 SI 16260 SI SI1 16260 1.100000 28.08600
16261 SI 16261 SI SI1 16261 1.100000 28.08600
16262 SI 16262 SI SI1 16262 1.100000 28.08600
16263 SI 16263 SI SI1 16263 1.100000 28.08600
16264 SI 16264 SI SI1 16264 1.100000 28.08600
16265 SI 16265 SI SI1 16265 1.100000 28.08600
16266 SI 16266 SI SI1 16266 1.100000 28.08600
16267 SI 16267 SI SI1 16267 1.100000 28.08600
16268 SI 16268 SI SI1 16268 1.100000 28.08600
16269 SI 16269 SI SI1 16269 1.100000 28.08600
16270 SI 16270 SI SI1 16270 1.100000 28.08600
16271 SI 16271 SI SI1 16271 1.100000 28.08600
16272 SI 16272 SI SI1 16272 1.100000 28.08600
16273 SI 16273 SI SI1 16273 1.100000 28.08600
16274 SI 16274 SI SI1 16274 1.100000 28.08600
16275 SI 16275 SI SI1 16275 1.100000 28.08600
16276 SI 16276 SI SI1 16276 1.100000 28.08600
16277 SI 16277 SI SI1 16277 1.100000 28.08600
16278 SI 16278 SI SI1 16278 1.100000 28.08600
16279 SI 16279 SI SI1 16279 1.100000 28.08600
16280 SI 16280 SI SI1 16280 1.100000 28.08600
16281 SI 16281 SI SI1 16281 1.100000 28.08600
16282 SI 16282 SI SI1 16282 1.100000 28.08600
16283 SI 16283 SI SI1 16283 1.100000 28.08600
16284 SI 16284 SI SI1 16284 1.100000 28.08600
16285 SI 16285 SI SI1 16285 1.100000 28.08600
16286 SI 16286 SI SI1 16286 1.100000 28.08600
16287 SI 16287 SI SI1 16287 1.100000 28.08600
16288 SI 16288 SI SI1 16288 1.100000 28.08600
16289 SI 16289 SI SI1 16289 1.100000 28.08600
16290 SI 16290 SI SI1 16290 1.100000 28.08600
16291 SI 16291 SI SI1 16291 1.100000 28.08600
16292 SI 16292 SI SI1 16292 1.100000 28.08600
16293 SI 16293 SI SI1 16293 1.100000 28.08600
16294 SI 16294 SI SI1 16294 1.100000 28.08600
16295 SI 16295 SI SI1 16295 1.100000 28.08600
16296 SI 16296 SI SI1 16296 1.100000 28.08600
16297 SI 16297 SI SI1 16297 1.100000 28.08600
16298 SI 16298 SI SI1 16298 1.100000 28.08600
16299 SI 16299 SI SI1 16299 1.100000 28.08600
16300 SI 16300 SI SI1 16300 1.100000 28.08600
16301 SI 16301 SI SI1 16301 1.100000 28.08600
16302 SI 16302 SI SI1 16302 1.100000 28.08600
16303 SI 16303 SI SI1 16303 1.100000 28.08600
16304 SI 16304 SI SI1 16304 1.100000 28.08600
16305 SI 16305 SI SI1 16305 1.100000 28.08600
16306 SI 16306 SI SI1 16306 1.100000 28.08600
16307 SI 16307 SI SI1 16307 1.100000 28.08600
16308 SI 16308 SI SI1 16308 1.100000 28.08600
16309 SI 16309 SI SI1 16309 1.100000 28.08600
16310 SI 16310 SI SI1 16310 1.100000 28.08600
16311 SI 16311 SI SI1 16311 1.100000 28.08600
16312 SI 16312 SI SI1 16312 1.100000 28.08600
16313 SI 16313 SI SI1 16313 1.100000 28.08600
16314 SI 16314 SI SI1 16314 1.100000 28.08600
16315 SI 16315 SI SI1 16315 1.100000 28.08600
16316 SI 16316 SI SI1 16316 1.100000 28.08600
16317 SI 16317 SI SI1 16317 1.100000 28.08600
16318 SI 16318 SI SI1 16318 1.100000 28.08600
16319 SI 16319 SI SI1 16319 1.100000 28.08600
16320 SI 16320 SI SI1 16320 1.100000 28.08600
16321 SI 16321 SI SI1 16321 1.100000 28.08600
16322 SI 16322 SI SI1 16322 1.100000 28.08600
16323 SI 16323 SI SI1 16323 1.100000 28.08600
16324 SI 16324 SI SI1 16324 1.100000 28.08600
16325 SI 16325 SI SI1 16325 1.100000 28.08600
16326 SI 16326 SI SI1 16326 1.100000 28.08600
16327 SI 16327 SI SI1 16327 1.100000 28.08600
16328 SI 16328 SI SI1 16328 1.100000 28.08600
16329 SI 16329 SI SI1 16329 1.100000 28.08600
16330 SI 16330 SI SI1 16330 1.100000 28.08600
16331 SI 16331 SI SI1 16331 1.100000 28.08600
16332 SI 16332 SI SI1 16332 1.100000 28.08600
16333 SI 16333 SI SI1 16333 1.100000 28.08600
16334 SI 16334 SI SI1 16334 1.100000 28.08600
16335 SI 16335 SI SI1 16335 1.100000 28.08600
16336 SI 16336 SI SI1 16336 1.100000 28.08600
16337 SI 16337 SI SI1 16337 1.100000 28.08600
16338 SI 16338 SI SI1 16338 1.100000 28.08600
16339 SI 16339 SI SI1 16339 1.100000 28.08600
16340 SI 16340 SI SI1 16340 1.100000 28.08600
16341 SI 16341 SI SI1 16341 1.100000 28.08600
16342 SI 16342 SI SI1 16342 1.100000 28.08600
16343 SI 16343 SI SI1 16343 1.100000 28.08600
16344 SI 16344 SI SI1 16344 1.100000 28.08600
16345 SI 16345 SI SI1 16345 1.100000 28.08600
16346 SI 16346 SI SI1 16346 1.100000 28.08600
16347 SI 16347 SI SI1 16347 1.100000 28.08600
16348 SI 16348 SI SI1 16348 1.100000 28.08600
16349 SI 16349 SI SI1 16349 1.100000 28.08600
16350 SI 16350 SI SI1 16350 1.100000 28.08600
16351 SI 16351 SI SI1 16351 1.100000 28.08600
16352 SI 16352 SI SI1 16352 1.100000 28.08600
16353 SI 16353 SI SI1 16353 1.100000 28.08600
16354 SI 16354 SI SI1 16354 1.100000 28.08600
16355 SI 16355 SI SI1 16355 1.100000 28.08600
16356 SI 16356 SI SI1 16356 1.100000 28.08600
16357 SI 16357 SI SI1 16357 1.100000 28.08600
16358 SI 16358 SI SI1 16358 1.100000 28.08600
16359 SI 16359 SI SI1 16359 1.100000 28.08600
16360 SI 16360 SI SI1 16360 1.100000 28.08600
16361 SI 16361 SI SI1 16361 1.100000 28.08600
16362 SI 16362 SI SI1 16362 1.100000 28.08600
16363 SI 16363 SI SI1 16363 1.100000 28.08600
16364 SI 16364 SI SI1 16364 1.100000 28.08600
16365 SI 16365 SI SI1 16365 1.100000 28.08600
16366 SI 16366 SI SI1 16366 1.100000 28.08600
16367 SI 16367 SI SI1 16367 1.100000 28.08600
16368 SI 16368 SI SI1 16368 1.100000 28.08600
16369 SI 16369 SI SI1 16369 1.100000 28.08600
16370 SI 16370 SI SI1 16370 1.100000 28.08600
16371 SI 16371 SI SI1 16371 1.100000 28.08600
16372 SI 16372 SI SI1 16372 1.100000 28.08600
16373 SI 16373 SI SI1 16373 1.100000 28.08600
16374 SI 16374 SI SI1 16374 1.100000 28.08600
16375 SI 16375 SI SI1 16375 1.100000 28.08600
16376 SI 16376 SI SI1 16376 1.100000 28.08600
16377 SI 16377 SI SI1 16377 1.100000 28.08600
16378 SI 16378 SI SI1 16378 1.100000 28.08600
16379 SI 16379 SI SI1 16379 1.100000 28.08600
16380 SI 16380 SI SI1 16380 1.100000 28.08600
16381 SI 16381 SI SI1 16381 1.100000 28.08600
16382 SI 16382 SI SI1 16382 1.100000 28.08600
16383 SI 16383 SI SI1 16383 1.100000 28.08600
16384 SI 16384 SI SI1 16384 1.100000 28.08600
16385 SI 16385 SI SI1 16385 1.100000 28.08600
16386 SI 16386 SI SI1 16386 1.100000 28.08600
16387 SI 16387 SI SI1 16387 1.100000 28.08600
16388 SI 16388 SI SI1 16388 1.100000 28.08600
16389 SI 16389 SI SI1 16389 1.100000 28.08600
16390 SI 16390 SI SI1 16390 1.100000 28.08600
16391 SI 16391 SI SI1 16391 1.100000 28.08600
16392 SI 16392 SI SI1 16392 1.100000 28.08600
16393 SI 16393 SI SI1 16393 1.100000 28.08600
16394 SI 16394 SI SI1 16394 1.100000 28.08600
16395 SI 16395 SI SI1 16395 1.100000 28.08600
16396 SI 16396 SI SI1 16396 1.100000 28.08600
16397 SI 16397 SI SI1 16397 1.100000 28.08600
16398 SI 16398 SI SI1 16398 1.100000 28.08600
16399 SI 16399 SI SI1 16399 1.100000 28.08600
16400 SI 16400 SI SI1 16400 1.100000 28.08600
16401 SI 16401 SI SI1 16401 1.100000 28.08600
16402 SI 16402 SI SI1 16402 1.100000 28.08600
16403 SI 16403 SI SI1 16403 1.100000 28.08600
16404 SI 16404 SI SI1 16404 1.100000 28.08600
16405 SI 16405 SI SI1 16405 1.100000 28.08600
16406 SI 16406 SI SI1 16406 1.100000 28.08600
16407 SI 16407 SI SI1 16407 1.100000 28.08600
16408 SI 16408 SI SI1 16408 1.100000 28.08600
16409 SI 16409 SI SI1 16409 1.100000 28.08600
16410 SI 16410 SI SI1 16410 1.100000 28.08600
16411 SI 16411 SI SI1 16411 1.100000 28.08600
16412 SI 16412 SI SI1 16412 1.100000 28.08600
16413 SI 16413 SI SI1 16413 1.100000 28.08600
16414 SI 16414 SI SI1 16414 1.100000 28.08600
16415 SI 16415 SI SI1 16415 1.100000 28.08600
16416 SI 16416 SI SI1 16416 1.100000 28.08600
16417 SI 16417 SI SI1 16417 1.100000 28.08600
16418 SI 16418 SI SI1 16418 1.100000 28.08600
16419 SI 16419 SI SI1 16419 1.100000 28.08600
16420 SI 16420 SI SI1 16420 1.100000 28.08600
16421 SI 16421 SI SI1 16421 1.100000 28.08600
16422 SI 16422 SI SI1 16422 1.100000 28.08600
16423 SI 16423 SI SI1 16423 1.100000 28.08600
16424 SI 16424 SI SI1 16424 1.100000 28.08600
16425 SI 16425 SI SI1 16425 1.100000 28.08600
16426 SI 16426 SI SI1 16426 1.100000 28.08600
16427 SI 16427 SI SI1 16427 1.100000 28.08600
16428 SI 16428 SI SI1 16428 1.100000 28.08600
16429 SI 16429 SI SI1 16429 1.100000 28.08600
16430 SI 16430 SI SI1 16430 1.100000 28.08600
16431 SI 16431 SI SI1 16431 1.100000 28.08600
16432 SI 16432 SI SI1 16432 1.100000 28.08600
16433 SI 16433 SI SI1 16433 1.100000 28.08600
16434 SI 16434 SI SI1 16434 1.100000 28.08600
16435 SI 16435 SI SI1 16435 1.100000 28.08600
16436 SI 16436 SI SI1 16436 1.100000 28.08600
16437 SI 16437 SI SI1 16437 1.100000 28.08600
16438 SI 16438 SI SI1 16438 1.100000 28.08600
16439 SI 16439 SI SI1 16439 1.100000 28.08600
16440 SI 16440 SI SI1 16440 1.100000 28.08600
16441 SI 16441 SI SI1 16441 1.100000 28.08600
16442 SI 16442 SI SI1 16442 1.100000 28.08600
16443 SI 16443 SI SI1 16443 1.100000 28.08600
16444 SI 16444 SI SI1 16444 1.100000 28.08600
16445 SI 16445 SI SI1 16445 1.100000 28.08600
16446 SI 16446 SI SI1 16446 1.100000 28.08600
16447 SI 16447 SI SI1 16447 1.100000 28.08600
16448 SI 16448 SI SI1 16448 1.100000 28.08600
16449 SI 16449 SI SI1 16449 1.100000 28.08600
16450 SI 16450 SI SI1 16450 1.100000 28.08600
16451 SI 16451 SI SI1 16451 1.100000 28.08600
16452 SI 16452 SI SI1 16452 1.100000 28.08600
16453 SI 16453 SI SI1 16453 1.100000 28.08600
16454 SI 16454 SI SI1 16454 1.100000 28.08600
16455 SI 16455 SI SI1 16455 1.100000 28.08600
16456 SI 16456 SI SI1 16456 1.100000 28.08600
16457 SI 16457 SI SI1 16457 1.100000 28.08600
16458 SI 16458 SI SI1 16458 1.100000 28.08600
16459 SI 16459 SI SI1 16459 1.100000 28.08600
16460 SI 16460 SI SI1 16460 1.100000 28.08600
16461 SI 16461 SI SI1 16461 1.100000 28.08600
16462 SI 16462 SI SI1 16462 1.100000 28.08600
16463 SI 16463 SI SI1 16463 1.100000 28.08600
16464 SI 16464 SI SI1 16464 1.100000 28.08600
16465 SI 16465 SI SI1 16465 1.100000 28.08600
16466 SI 16466 SI SI1 16466 1.100000 28.08600
16467 SI 16467 SI SI1 16467 1.100000 28.08600
16468 SI 16468 SI SI1 16468 1.100000 28.08600
16469 SI 16469 SI SI1 16469 1.100000 28.08600
16470 SI 16470 SI SI1 16470 1.100000 28.08600
16471 SI 16471 SI SI1 16471 1.100000 28.08600
16472 SI 16472 SI SI1 16472 1.100000 28.08600
16473 SI 16473 SI SI1 16473 1.100000 28.08600
16474 SI 16474 SI SI1 16474 1.100000 28.08600
16475 SI 16475 SI SI1 16475 1.100000 28.08600
16476 SI 16476 SI SI1 16476 1.100000 28.08600
16477 SI 16477 SI SI1 16477 1.100000 28.08600
16478 SI 16478 SI SI1 16478 1.100000 28.08600
16479 SI 16479 SI SI1 16479 1.100000 28.08600
16480 SI 16480 SI SI1 16480 1.100000 28.08600
16481 SI 16481 SI SI1 16481 1.100000 28.08600
16482 SI 16482 SI SI1 16482 1.100000 28.08600
16483 SI 16483 SI SI1 16483 1.100000 28.08600
16484 SI 16484 SI SI1 16484 1.100000 28.08600
16485 SI 16485 SI SI1 16485 1.100000 28.08600
16486 SI 16486 SI SI1 16486 1.100000 28.08600
16487 SI 16487 SI SI1 16487 1.100000 28.08600
16488 SI 16488 SI SI1 16488 1.100000 28.08600
16489 SI 16489 SI SI1 16489 1.100000 28.08600
16490 SI 16490 SI SI1 16490 1.100000 28.08600
16491 SI 16491 SI SI1 16491 1.100000 28.08600
16492 SI 16492 SI SI1 16492 1.100000 28.08600
16493 SI 16493 SI SI1 16493 1.100000 28.08600
16494 SI 16494 SI SI1 16494 1.100000 28.08600
16495 SI 16495 SI SI1 16495 1.100000 28.08600
16496 SI 16496 SI SI1 16496 1.100000 28.08600
16497 SI 16497 SI SI1 16497 1.100000 28.08600
16498 SI 16498 SI SI1 16498 1.100000 28.08600
16499 SI 16499 SI SI1 16499 1.100000 28.08600
16500 SI 16500 SI SI1 16500 1.100000 28.08600
16501 SI 16501 SI SI1 16501 1.100000 28.08600
16502 SI 16502 SI SI1 16502 1.100000 28.08600
16503 SI 16503 SI SI1 16503 1.100000 28.08600
16504 SI 16504 SI SI1 16504 1.100000 28.08600
16505 SI 16505 SI SI1 16505 1.100000 28.08600
16506 SI 16506 SI SI1 16506 1.100000 28.08600
16507 SI 16507 SI SI1 16507 1.100000 28.08600
16508 SI 16508 SI SI1 16508 1.100000 28.08600
16509 SI 16509 SI SI1 16509 1.100000 28.08600
16510 SI 16510 SI SI1 16510 1.100000 28.08600
16511 SI 16511 SI SI1 16511 1.100000 28.08600
16512 SI 16512 SI SI1 16512 1.100000 28.08600
16513 SI 16513 SI SI1 16513 1.100000 28.08600
16514 SI 16514 SI SI1 16514 1.100000 28.08600
16515 SI 16515 SI SI1 16515 1.100000 28.08600
16516 SI 16516 SI SI1 16516 1.100000 28.08600
16517 SI 16517 SI SI1 16517 1.100000 28.08600
16518 SI 16518 SI SI1 16518 1.100000 28.08600
16519 SI 16519 SI SI1 16519 1.100000 28.08600
16520 SI 16520 SI SI1 16520 1.100000 28.08600
16521 SI 16521 SI SI1 16521 1.100000 28.08600
16522 SI 16522 SI SI1 16522 1.100000 28.08600
16523 SI 16523 SI SI1 16523 1.100000 28.08600
16524 SI 16524 SI SI1 16524 1.100000 28.08600
16525 SI 16525 SI SI1 16525 1.100000 28.08600
16526 SI 16526 SI SI1 16526 1.100000 28.08600
16527 ha 16527 TPSG HA2 16527 0.1332 1.008000
16528 ca 16527 TPSG CA2 16528 -0.0753 12.010000
16529 ca 16527 TPSG CA1 16529 -0.361 12.010000
16530 si 16527 TPSG Si 16530 1.1 28.085000
16531 ca 16527 TPSG CA6 16531 -0.0753 12.010000
16532 ha 16527 TPSG HH6 16532 0.1332 1.008000
16533 ca 16527 TPSG CA5 16533 -0.1548 12.010000
16534 ha 16527 TPSG HA5 16534 0.1282 1.008000
16535 ca 16527 TPSG CA4 16535 -0.1028 12.010000
16536 ha 16527 TPSG HA4 16536 0.1262 1.008000
16537 ca 16527 TPSG CA3 16537 -0.1548 12.010000
16538 ha 16527 TPSG HA3 16538 0.1282 1.008000
16539 OA 16527 TPSG O1 16539 -0.675000 15.99940
16540 HG 16527 TPSG H6 16540 0.400000 2.01600
16541 ha 16528 TPSG HA2 16541 0.1332 1.008000
16542 ca 16528 TPSG CA2 16542 -0.0753 12.010000
16543 ca 16528 TPSG CA1 16543 -0.361 12.010000
16544 si 16528 TPSG Si 16544 1.1 28.085000
16545 ca 16528 TPSG CA6 16545 -0.0753 12.010000
16546 ha 16528 TPSG HH6 16546 0.1332 1.008000
16547 ca 16528 TPSG CA5 16547 -0.1548 12.010000
16548 ha 16528 TPSG HA5 16548 0.1282 1.008000
16549 ca 16528 TPSG CA4 16549 -0.1028 12.010000
16550 ha 16528 TPSG HA4 16550 0.1262 1.008000
16551 ca 16528 TPSG CA3 16551 -0.1548 12.010000
16552 ha 16528 TPSG HA3 16552 0.1282 1.008000
16553 OA 16528 TPSG O1 16553 -0.675000 15.99940
16554 HG 16528 TPSG H6 16554 0.400000 2.01600
16555 ha 16529 TPSG HA2 16555 0.1332 1.008000
16556 ca 16529 TPSG CA2 16556 -0.0753 12.010000
16557 ca 16529 TPSG CA1 16557 -0.361 12.010000
16558 si 16529 TPSG Si 16558 1.1 28.085000
16559 ca 16529 TPSG CA6 16559 -0.0753 12.010000
16560 ha 16529 TPSG HH6 16560 0.1332 1.008000
16561 ca 16529 TPSG CA5 16561 -0.1548 12.010000
16562 ha 16529 TPSG HA5 16562 0.1282 1.008000
16563 ca 16529 TPSG CA4 16563 -0.1028 12.010000
16564 ha 16529 TPSG HA4 16564 0.1262 1.008000
16565 ca 16529 TPSG CA3 16565 -0.1548 12.010000
16566 ha 16529 TPSG HA3 16566 0.1282 1.008000
16567 OA 16529 TPSG O1 16567 -0.675000 15.99940
16568 HG 16529 TPSG H6 16568 0.400000 2.01600
16569 ha 16530 TPSG HA2 16569 0.1332 1.008000
16570 ca 16530 TPSG CA2 16570 -0.0753 12.010000
16571 ca 16530 TPSG CA1 16571 -0.361 12.010000
16572 si 16530 TPSG Si 16572 1.1 28.085000
16573 ca 16530 TPSG CA6 16573 -0.0753 12.010000
16574 ha 16530 TPSG HH6 16574 0.1332 1.008000
16575 ca 16530 TPSG CA5 16575 -0.1548 12.010000
16576 ha 16530 TPSG HA5 16576 0.1282 1.008000
16577 ca 16530 TPSG CA4 16577 -0.1028 12.010000
16578 ha 16530 TPSG HA4 16578 0.1262 1.008000
16579 ca 16530 TPSG CA3 16579 -0.1548 12.010000
16580 ha 16530 TPSG HA3 16580 0.1282 1.008000
16581 OA 16530 TPSG O1 16581 -0.675000 15.99940
16582 HG 16530 TPSG H6 16582 0.400000 2.01600
16583 ha 16531 TPSG HA2 16583 0.1332 1.008000
16584 ca 16531 TPSG CA2 16584 -0.0753 12.010000
16585 ca 16531 TPSG CA1 16585 -0.361 12.010000
16586 si 16531 TPSG Si 16586 1.1 28.085000
16587 ca 16531 TPSG CA6 16587 -0.0753 12.010000
16588 ha 16531 TPSG HH6 16588 0.1332 1.008000
16589 ca 16531 TPSG CA5 16589 -0.1548 12.010000
16590 ha 16531 TPSG HA5 16590 0.1282 1.008000
16591 ca 16531 TPSG CA4 16591 -0.1028 12.010000
16592 ha 16531 TPSG HA4 16592 0.1262 1.008000
16593 ca 16531 TPSG CA3 16593 -0.1548 12.010000
16594 ha 16531 TPSG HA3 16594 0.1282 1.008000
16595 OA 16531 TPSG O1 16595 -0.675000 15.99940
16596 HG 16531 TPSG H6 16596 0.400000 2.01600
16597 ha 16532 TPSG HA2 16597 0.1332 1.008000
16598 ca 16532 TPSG CA2 16598 -0.0753 12.010000
16599 ca 16532 TPSG CA1 16599 -0.361 12.010000
16600 si 16532 TPSG Si 16600 1.1 28.085000
16601 ca 16532 TPSG CA6 16601 -0.0753 12.010000
16602 ha 16532 TPSG HH6 16602 0.1332 1.008000
16603 ca 16532 TPSG CA5 16603 -0.1548 12.010000
16604 ha 16532 TPSG HA5 16604 0.1282 1.008000
16605 ca 16532 TPSG CA4 16605 -0.1028 12.010000
16606 ha 16532 TPSG HA4 16606 0.1262 1.008000
16607 ca 16532 TPSG CA3 16607 -0.1548 12.010000
16608 ha 16532 TPSG HA3 16608 0.1282 1.008000
16609 OA 16532 TPSG O1 16609 -0.675000 15.99940
16610 HG 16532 TPSG H6 16610 0.400000 2.01600
16611 ha 16533 TPSG HA2 16611 0.1332 1.008000
16612 ca 16533 TPSG CA2 16612 -0.0753 12.010000
16613 ca 16533 TPSG CA1 16613 -0.361 12.010000
16614 si 16533 TPSG Si 16614 1.1 28.085000
16615 ca 16533 TPSG CA6 16615 -0.0753 12.010000
16616 ha 16533 TPSG HH6 16616 0.1332 1.008000
16617 ca 16533 TPSG CA5 16617 -0.1548 12.010000
16618 ha 16533 TPSG HA5 16618 0.1282 1.008000
16619 ca 16533 TPSG CA4 16619 -0.1028 12.010000
16620 ha 16533 TPSG HA4 16620 0.1262 1.008000
16621 ca 16533 TPSG CA3 16621 -0.1548 12.010000
16622 ha 16533 TPSG HA3 16622 0.1282 1.008000
16623 OA 16533 TPSG O1 16623 -0.675000 15.99940
16624 HG 16533 TPSG H6 16624 0.400000 2.01600
16625 ha 16534 TPSG HA2 16625 0.1332 1.008000
16626 ca 16534 TPSG CA2 16626 -0.0753 12.010000
16627 ca 16534 TPSG CA1 16627 -0.361 12.010000
16628 si 16534 TPSG Si 16628 1.1 28.085000
16629 ca 16534 TPSG CA6 16629 -0.0753 12.010000
16630 ha 16534 TPSG HH6 16630 0.1332 1.008000
16631 ca 16534 TPSG CA5 16631 -0.1548 12.010000
16632 ha 16534 TPSG HA5 16632 0.1282 1.008000
16633 ca 16534 TPSG CA4 16633 -0.1028 12.010000
16634 ha 16534 TPSG HA4 16634 0.1262 1.008000
16635 ca 16534 TPSG CA3 16635 -0.1548 12.010000
16636 ha 16534 TPSG HA3 16636 0.1282 1.008000
16637 OA 16534 TPSG O1 16637 -0.675000 15.99940
16638 HG 16534 TPSG H6 16638 0.400000 2.01600
16639 ha 16535 TPSG HA2 16639 0.1332 1.008000
16640 ca 16535 TPSG CA2 16640 -0.0753 12.010000
16641 ca 16535 TPSG CA1 16641 -0.361 12.010000
16642 si 16535 TPSG Si 16642 1.1 28.085000
16643 ca 16535 TPSG CA6 16643 -0.0753 12.010000
16644 ha 16535 TPSG HH6 16644 0.1332 1.008000
16645 ca 16535 TPSG CA5 16645 -0.1548 12.010000
16646 ha 16535 TPSG HA5 16646 0.1282 1.008000
16647 ca 16535 TPSG CA4 16647 -0.1028 12.010000
16648 ha 16535 TPSG HA4 16648 0.1262 1.008000
16649 ca 16535 TPSG CA3 16649 -0.1548 12.010000
16650 ha 16535 TPSG HA3 16650 0.1282 1.008000
16651 OA 16535 TPSG O1 16651 -0.675000 15.99940
16652 HG 16535 TPSG H6 16652 0.400000 2.01600
16653 ha 16536 TPSG HA2 16653 0.1332 1.008000
16654 ca 16536 TPSG CA2 16654 -0.0753 12.010000
16655 ca 16536 TPSG CA1 16655 -0.361 12.010000
16656 si 16536 TPSG Si 16656 1.1 28.085000
16657 ca 16536 TPSG CA6 16657 -0.0753 12.010000
16658 ha 16536 TPSG HH6 16658 0.1332 1.008000
16659 ca 16536 TPSG CA5 16659 -0.1548 12.010000
16660 ha 16536 TPSG HA5 16660 0.1282 1.008000
16661 ca 16536 TPSG CA4 16661 -0.1028 12.010000
16662 ha 16536 TPSG HA4 16662 0.1262 1.008000
16663 ca 16536 TPSG CA3 16663 -0.1548 12.010000
16664 ha 16536 TPSG HA3 16664 0.1282 1.008000
16665 OA 16536 TPSG O1 16665 -0.675000 15.99940
16666 HG 16536 TPSG H6 16666 0.400000 2.01600
16667 ha 16537 TPSG HA2 16667 0.1332 1.008000
16668 ca 16537 TPSG CA2 16668 -0.0753 12.010000
16669 ca 16537 TPSG CA1 16669 -0.361 12.010000
16670 si 16537 TPSG Si 16670 1.1 28.085000
16671 ca 16537 TPSG CA6 16671 -0.0753 12.010000
16672 ha 16537 TPSG HH6 16672 0.1332 1.008000
16673 ca 16537 TPSG CA5 16673 -0.1548 12.010000
16674 ha 16537 TPSG HA5 16674 0.1282 1.008000
16675 ca 16537 TPSG CA4 16675 -0.1028 12.010000
16676 ha 16537 TPSG HA4 16676 0.1262 1.008000
16677 ca 16537 TPSG CA3 16677 -0.1548 12.010000
16678 ha 16537 TPSG HA3 16678 0.1282 1.008000
16679 OA 16537 TPSG O1 16679 -0.675000 15.99940
16680 HG 16537 TPSG H6 16680 0.400000 2.01600
16681 ha 16538 TPSG HA2 16681 0.1332 1.008000
16682 ca 16538 TPSG CA2 16682 -0.0753 12.010000
16683 ca 16538 TPSG CA1 16683 -0.361 12.010000
16684 si 16538 TPSG Si 16684 1.1 28.085000
16685 ca 16538 TPSG CA6 16685 -0.0753 12.010000
16686 ha 16538 TPSG HH6 16686 0.1332 1.008000
16687 ca 16538 TPSG CA5 16687 -0.1548 12.010000
16688 ha 16538 TPSG HA5 16688 0.1282 1.008000
16689 ca 16538 TPSG CA4 16689 -0.1028 12.010000
16690 ha 16538 TPSG HA4 16690 0.1262 1.008000
16691 ca 16538 TPSG CA3 16691 -0.1548 12.010000
16692 ha 16538 TPSG HA3 16692 0.1282 1.008000
16693 OA 16538 TPSG O1 16693 -0.675000 15.99940
16694 HG 16538 TPSG H6 16694 0.400000 2.01600
16695 ha 16539 TPSG HA2 16695 0.1332 1.008000
16696 ca 16539 TPSG CA2 16696 -0.0753 12.010000
16697 ca 16539 TPSG CA1 16697 -0.361 12.010000
16698 si 16539 TPSG Si 16698 1.1 28.085000
16699 ca 16539 TPSG CA6 16699 -0.0753 12.010000
16700 ha 16539 TPSG HH6 16700 0.1332 1.008000
16701 ca 16539 TPSG CA5 16701 -0.1548 12.010000
16702 ha 16539 TPSG HA5 16702 0.1282 1.008000
16703 ca 16539 TPSG CA4 16703 -0.1028 12.010000
16704 ha 16539 TPSG HA4 16704 0.1262 1.008000
16705 ca 16539 TPSG CA3 16705 -0.1548 12.010000
16706 ha 16539 TPSG HA3 16706 0.1282 1.008000
16707 OA 16539 TPSG O1 16707 -0.675000 15.99940
16708 HG 16539 TPSG H6 16708 0.400000 2.01600
16709 ha 16540 TPSG HA2 16709 0.1332 1.008000
16710 ca 16540 TPSG CA2 16710 -0.0753 12.010000
16711 ca 16540 TPSG CA1 16711 -0.361 12.010000
16712 si 16540 TPSG Si 16712 1.1 28.085000
16713 ca 16540 TPSG CA6 16713 -0.0753 12.010000
16714 ha 16540 TPSG HH6 16714 0.1332 1.008000
16715 ca 16540 TPSG CA5 16715 -0.1548 12.010000
16716 ha 16540 TPSG HA5 16716 0.1282 1.008000
16717 ca 16540 TPSG CA4 16717 -0.1028 12.010000
16718 ha 16540 TPSG HA4 16718 0.1262 1.008000
16719 ca 16540 TPSG CA3 16719 -0.1548 12.010000
16720 ha 16540 TPSG HA3 16720 0.1282 1.008000
16721 OA 16540 TPSG O1 16721 -0.675000 15.99940
16722 HG 16540 TPSG H6 16722 0.400000 2.01600
16723 ha 16541 TPSG HA2 16723 0.1332 1.008000
16724 ca 16541 TPSG CA2 16724 -0.0753 12.010000
16725 ca 16541 TPSG CA1 16725 -0.361 12.010000
16726 si 16541 TPSG Si 16726 1.1 28.085000
16727 ca 16541 TPSG CA6 16727 -0.0753 12.010000
16728 ha 16541 TPSG HH6 16728 0.1332 1.008000
16729 ca 16541 TPSG CA5 16729 -0.1548 12.010000
16730 ha 16541 TPSG HA5 16730 0.1282 1.008000
16731 ca 16541 TPSG CA4 16731 -0.1028 12.010000
16732 ha 16541 TPSG HA4 16732 0.1262 1.008000
16733 ca 16541 TPSG CA3 16733 -0.1548 12.010000
16734 ha 16541 TPSG HA3 16734 0.1282 1.008000
16735 OA 16541 TPSG O1 16735 -0.675000 15.99940
16736 HG 16541 TPSG H6 16736 0.400000 2.01600
16737 ha 16542 TPSG HA2 16737 0.1332 1.008000
16738 ca 16542 TPSG CA2 16738 -0.0753 12.010000
16739 ca 16542 TPSG CA1 16739 -0.361 12.010000
16740 si 16542 TPSG Si 16740 1.1 28.085000
16741 ca 16542 TPSG CA6 16741 -0.0753 12.010000
16742 ha 16542 TPSG HH6 16742 0.1332 1.008000
16743 ca 16542 TPSG CA5 16743 -0.1548 12.010000
16744 ha 16542 TPSG HA5 16744 0.1282 1.008000
16745 ca 16542 TPSG CA4 16745 -0.1028 12.010000
16746 ha 16542 TPSG HA4 16746 0.1262 1.008000
16747 ca 16542 TPSG CA3 16747 -0.1548 12.010000
16748 ha 16542 TPSG HA3 16748 0.1282 1.008000
16749 OA 16542 TPSG O1 16749 -0.675000 15.99940
16750 HG 16542 TPSG H6 16750 0.400000 2.01600
16751 ha 16543 TPSG HA2 16751 0.1332 1.008000
16752 ca 16543 TPSG CA2 16752 -0.0753 12.010000
16753 ca 16543 TPSG CA1 16753 -0.361 12.010000
16754 si 16543 TPSG Si 16754 1.1 28.085000
16755 ca 16543 TPSG CA6 16755 -0.0753 12.010000
16756 ha 16543 TPSG HH6 16756 0.1332 1.008000
16757 ca 16543 TPSG CA5 16757 -0.1548 12.010000
16758 ha 16543 TPSG HA5 16758 0.1282 1.008000
16759 ca 16543 TPSG CA4 16759 -0.1028 12.010000
16760 ha 16543 TPSG HA4 16760 0.1262 1.008000
16761 ca 16543 TPSG CA3 16761 -0.1548 12.010000
16762 ha 16543 TPSG HA3 16762 0.1282 1.008000
16763 OA 16543 TPSG O1 16763 -0.675000 15.99940
16764 HG 16543 TPSG H6 16764 0.400000 2.01600
16765 ha 16544 TPSG HA2 16765 0.1332 1.008000
16766 ca 16544 TPSG CA2 16766 -0.0753 12.010000
16767 ca 16544 TPSG CA1 16767 -0.361 12.010000
16768 si 16544 TPSG Si 16768 1.1 28.085000
16769 ca 16544 TPSG CA6 16769 -0.0753 12.010000
16770 ha 16544 TPSG HH6 16770 0.1332 1.008000
16771 ca 16544 TPSG CA5 16771 -0.1548 12.010000
16772 ha 16544 TPSG HA5 16772 0.1282 1.008000
16773 ca 16544 TPSG CA4 16773 -0.1028 12.010000
16774 ha 16544 TPSG HA4 16774 0.1262 1.008000
16775 ca 16544 TPSG CA3 16775 -0.1548 12.010000
16776 ha 16544 TPSG HA3 16776 0.1282 1.008000
16777 OA 16544 TPSG O1 16777 -0.675000 15.99940
16778 HG 16544 TPSG H6 16778 0.400000 2.01600
16779 ha 16545 TPSG HA2 16779 0.1332 1.008000
16780 ca 16545 TPSG CA2 16780 -0.0753 12.010000
16781 ca 16545 TPSG CA1 16781 -0.361 12.010000
16782 si 16545 TPSG Si 16782 1.1 28.085000
16783 ca 16545 TPSG CA6 16783 -0.0753 12.010000
16784 ha 16545 TPSG HH6 16784 0.1332 1.008000
16785 ca 16545 TPSG CA5 16785 -0.1548 12.010000
16786 ha 16545 TPSG HA5 16786 0.1282 1.008000
16787 ca 16545 TPSG CA4 16787 -0.1028 12.010000
16788 ha 16545 TPSG HA4 16788 0.1262 1.008000
16789 ca 16545 TPSG CA3 16789 -0.1548 12.010000
16790 ha 16545 TPSG HA3 16790 0.1282 1.008000
16791 OA 16545 TPSG O1 16791 -0.675000 15.99940
16792 HG 16545 TPSG H6 16792 0.400000 2.01600
16793 ha 16546 TPSG HA2 16793 0.1332 1.008000
16794 ca 16546 TPSG CA2 16794 -0.0753 12.010000
16795 ca 16546 TPSG CA1 16795 -0.361 12.010000
16796 si 16546 TPSG Si 16796 1.1 28.085000
16797 ca 16546 TPSG CA6 16797 -0.0753 12.010000
16798 ha 16546 TPSG HH6 16798 0.1332 1.008000
16799 ca 16546 TPSG CA5 16799 -0.1548 12.010000
16800 ha 16546 TPSG HA5 16800 0.1282 1.008000
16801 ca 16546 TPSG CA4 16801 -0.1028 12.010000
16802 ha 16546 TPSG HA4 16802 0.1262 1.008000
16803 ca 16546 TPSG CA3 16803 -0.1548 12.010000
16804 ha 16546 TPSG HA3 16804 0.1282 1.008000
16805 OA 16546 TPSG O1 16805 -0.675000 15.99940
16806 HG 16546 TPSG H6 16806 0.400000 2.01600
16807 ha 16547 TPSG HA2 16807 0.1332 1.008000
16808 ca 16547 TPSG CA2 16808 -0.0753 12.010000
16809 ca 16547 TPSG CA1 16809 -0.361 12.010000
16810 si 16547 TPSG Si 16810 1.1 28.085000
16811 ca 16547 TPSG CA6 16811 -0.0753 12.010000
16812 ha 16547 TPSG HH6 16812 0.1332 1.008000
16813 ca 16547 TPSG CA5 16813 -0.1548 12.010000
16814 ha 16547 TPSG HA5 16814 0.1282 1.008000
16815 ca 16547 TPSG CA4 16815 -0.1028 12.010000
16816 ha 16547 TPSG HA4 16816 0.1262 1.008000
16817 ca 16547 TPSG CA3 16817 -0.1548 12.010000
16818 ha 16547 TPSG HA3 16818 0.1282 1.008000
16819 OA 16547 TPSG O1 16819 -0.675000 15.99940
16820 HG 16547 TPSG H6 16820 0.400000 2.01600
16821 ha 16548 TPSG HA2 16821 0.1332 1.008000
16822 ca 16548 TPSG CA2 16822 -0.0753 12.010000
16823 ca 16548 TPSG CA1 16823 -0.361 12.010000
16824 si 16548 TPSG Si 16824 1.1 28.085000
16825 ca 16548 TPSG CA6 16825 -0.0753 12.010000
16826 ha 16548 TPSG HH6 16826 0.1332 1.008000
16827 ca 16548 TPSG CA5 16827 -0.1548 12.010000
16828 ha 16548 TPSG HA5 16828 0.1282 1.008000
16829 ca 16548 TPSG CA4 16829 -0.1028 12.010000
16830 ha 16548 TPSG HA4 16830 0.1262 1.008000
16831 ca 16548 TPSG CA3 16831 -0.1548 12.010000
16832 ha 16548 TPSG HA3 16832 0.1282 1.008000
16833 OA 16548 TPSG O1 16833 -0.675000 15.99940
16834 HG 16548 TPSG H6 16834 0.400000 2.01600
16835 ha 16549 TPSG HA2 16835 0.1332 1.008000
16836 ca 16549 TPSG CA2 16836 -0.0753 12.010000
16837 ca 16549 TPSG CA1 16837 -0.361 12.010000
16838 si 16549 TPSG Si 16838 1.1 28.085000
16839 ca 16549 TPSG CA6 16839 -0.0753 12.010000
16840 ha 16549 TPSG HH6 16840 0.1332 1.008000
16841 ca 16549 TPSG CA5 16841 -0.1548 12.010000
16842 ha 16549 TPSG HA5 16842 0.1282 1.008000
16843 ca 16549 TPSG CA4 16843 -0.1028 12.010000
16844 ha 16549 TPSG HA4 16844 0.1262 1.008000
16845 ca 16549 TPSG CA3 16845 -0.1548 12.010000
16846 ha 16549 TPSG HA3 16846 0.1282 1.008000
16847 OA 16549 TPSG O1 16847 -0.675000 15.99940
16848 HG 16549 TPSG H6 16848 0.400000 2.01600
16849 ha 16550 TPSG HA2 16849 0.1332 1.008000
16850 ca 16550 TPSG CA2 16850 -0.0753 12.010000
16851 ca 16550 TPSG CA1 16851 -0.361 12.010000
16852 si 16550 TPSG Si 16852 1.1 28.085000
16853 ca 16550 TPSG CA6 16853 -0.0753 12.010000
16854 ha 16550 TPSG HH6 16854 0.1332 1.008000
16855 ca 16550 TPSG CA5 16855 -0.1548 12.010000
16856 ha 16550 TPSG HA5 16856 0.1282 1.008000
16857 ca 16550 TPSG CA4 16857 -0.1028 12.010000
16858 ha 16550 TPSG HA4 16858 0.1262 1.008000
16859 ca 16550 TPSG CA3 16859 -0.1548 12.010000
16860 ha 16550 TPSG HA3 16860 0.1282 1.008000
16861 OA 16550 TPSG O1 16861 -0.675000 15.99940
16862 HG 16550 TPSG H6 16862 0.400000 2.01600
16863 ha 16551 TPSG HA2 16863 0.1332 1.008000
16864 ca 16551 TPSG CA2 16864 -0.0753 12.010000
16865 ca 16551 TPSG CA1 16865 -0.361 12.010000
16866 si 16551 TPSG Si 16866 1.1 28.085000
16867 ca 16551 TPSG CA6 16867 -0.0753 12.010000
16868 ha 16551 TPSG HH6 16868 0.1332 1.008000
16869 ca 16551 TPSG CA5 16869 -0.1548 12.010000
16870 ha 16551 TPSG HA5 16870 0.1282 1.008000
16871 ca 16551 TPSG CA4 16871 -0.1028 12.010000
16872 ha 16551 TPSG HA4 16872 0.1262 1.008000
16873 ca 16551 TPSG CA3 16873 -0.1548 12.010000
16874 ha 16551 TPSG HA3 16874 0.1282 1.008000
16875 OA 16551 TPSG O1 16875 -0.675000 15.99940
16876 HG 16551 TPSG H6 16876 0.400000 2.01600
16877 ha 16552 TPSG HA2 16877 0.1332 1.008000
16878 ca 16552 TPSG CA2 16878 -0.0753 12.010000
16879 ca 16552 TPSG CA1 16879 -0.361 12.010000
16880 si 16552 TPSG Si 16880 1.1 28.085000
16881 ca 16552 TPSG CA6 16881 -0.0753 12.010000
16882 ha 16552 TPSG HH6 16882 0.1332 1.008000
16883 ca 16552 TPSG CA5 16883 -0.1548 12.010000
16884 ha 16552 TPSG HA5 16884 0.1282 1.008000
16885 ca 16552 TPSG CA4 16885 -0.1028 12.010000
16886 ha 16552 TPSG HA4 16886 0.1262 1.008000
16887 ca 16552 TPSG CA3 16887 -0.1548 12.010000
16888 ha 16552 TPSG HA3 16888 0.1282 1.008000
16889 OA 16552 TPSG O1 16889 -0.675000 15.99940
16890 HG 16552 TPSG H6 16890 0.400000 2.01600
16891 ha 16553 TPSG HA2 16891 0.1332 1.008000
16892 ca 16553 TPSG CA2 16892 -0.0753 12.010000
16893 ca 16553 TPSG CA1 16893 -0.361 12.010000
16894 si 16553 TPSG Si 16894 1.1 28.085000
16895 ca 16553 TPSG CA6 16895 -0.0753 12.010000
16896 ha 16553 TPSG HH6 16896 0.1332 1.008000
16897 ca 16553 TPSG CA5 16897 -0.1548 12.010000
16898 ha 16553 TPSG HA5 16898 0.1282 1.008000
16899 ca 16553 TPSG CA4 16899 -0.1028 12.010000
16900 ha 16553 TPSG HA4 16900 0.1262 1.008000
16901 ca 16553 TPSG CA3 16901 -0.1548 12.010000
16902 ha 16553 TPSG HA3 16902 0.1282 1.008000
16903 OA 16553 TPSG O1 16903 -0.675000 15.99940
16904 HG 16553 TPSG H6 16904 0.400000 2.01600
16905 ha 16554 TPSG HA2 16905 0.1332 1.008000
16906 ca 16554 TPSG CA2 16906 -0.0753 12.010000
16907 ca 16554 TPSG CA1 16907 -0.361 12.010000
16908 si 16554 TPSG Si 16908 1.1 28.085000
16909 ca 16554 TPSG CA6 16909 -0.0753 12.010000
16910 ha 16554 TPSG HH6 16910 0.1332 1.008000
16911 ca 16554 TPSG CA5 16911 -0.1548 12.010000
16912 ha 16554 TPSG HA5 16912 0.1282 1.008000
16913 ca 16554 TPSG CA4 16913 -0.1028 12.010000
16914 ha 16554 TPSG HA4 16914 0.1262 1.008000
16915 ca 16554 TPSG CA3 16915 -0.1548 12.010000
16916 ha 16554 TPSG HA3 16916 0.1282 1.008000
16917 OA 16554 TPSG O1 16917 -0.675000 15.99940
16918 HG 16554 TPSG H6 16918 0.400000 2.01600
16919 ha 16555 TPSG HA2 16919 0.1332 1.008000
16920 ca 16555 TPSG CA2 16920 -0.0753 12.010000
16921 ca 16555 TPSG CA1 16921 -0.361 12.010000
16922 si 16555 TPSG Si 16922 1.1 28.085000
16923 ca 16555 TPSG CA6 16923 -0.0753 12.010000
16924 ha 16555 TPSG HH6 16924 0.1332 1.008000
16925 ca 16555 TPSG CA5 16925 -0.1548 12.010000
16926 ha 16555 TPSG HA5 16926 0.1282 1.008000
16927 ca 16555 TPSG CA4 16927 -0.1028 12.010000
16928 ha 16555 TPSG HA4 16928 0.1262 1.008000
16929 ca 16555 TPSG CA3 16929 -0.1548 12.010000
16930 ha 16555 TPSG HA3 16930 0.1282 1.008000
16931 OA 16555 TPSG O1 16931 -0.675000 15.99940
16932 HG 16555 TPSG H6 16932 0.400000 2.01600
16933 ha 16556 TPSG HA2 16933 0.1332 1.008000
16934 ca 16556 TPSG CA2 16934 -0.0753 12.010000
16935 ca 16556 TPSG CA1 16935 -0.361 12.010000
16936 si 16556 TPSG Si 16936 1.1 28.085000
16937 ca 16556 TPSG CA6 16937 -0.0753 12.010000
16938 ha 16556 TPSG HH6 16938 0.1332 1.008000
16939 ca 16556 TPSG CA5 16939 -0.1548 12.010000
16940 ha 16556 TPSG HA5 16940 0.1282 1.008000
16941 ca 16556 TPSG CA4 16941 -0.1028 12.010000
16942 ha 16556 TPSG HA4 16942 0.1262 1.008000
16943 ca 16556 TPSG CA3 16943 -0.1548 12.010000
16944 ha 16556 TPSG HA3 16944 0.1282 1.008000
16945 OA 16556 TPSG O1 16945 -0.675000 15.99940
16946 HG 16556 TPSG H6 16946 0.400000 2.01600
16947 ha 16557 TPSG HA2 16947 0.1332 1.008000
16948 ca 16557 TPSG CA2 16948 -0.0753 12.010000
16949 ca 16557 TPSG CA1 16949 -0.361 12.010000
16950 si 16557 TPSG Si 16950 1.1 28.085000
16951 ca 16557 TPSG CA6 16951 -0.0753 12.010000
16952 ha 16557 TPSG HH6 16952 0.1332 1.008000
16953 ca 16557 TPSG CA5 16953 -0.1548 12.010000
16954 ha 16557 TPSG HA5 16954 0.1282 1.008000
16955 ca 16557 TPSG CA4 16955 -0.1028 12.010000
16956 ha 16557 TPSG HA4 16956 0.1262 1.008000
16957 ca 16557 TPSG CA3 16957 -0.1548 12.010000
16958 ha 16557 TPSG HA3 16958 0.1282 1.008000
16959 OA 16557 TPSG O1 16959 -0.675000 15.99940
16960 HG 16557 TPSG H6 16960 0.400000 2.01600
16961 ha 16558 TPSG HA2 16961 0.1332 1.008000
16962 ca 16558 TPSG CA2 16962 -0.0753 12.010000
16963 ca 16558 TPSG CA1 16963 -0.361 12.010000
16964 si 16558 TPSG Si 16964 1.1 28.085000
16965 ca 16558 TPSG CA6 16965 -0.0753 12.010000
16966 ha 16558 TPSG HH6 16966 0.1332 1.008000
16967 ca 16558 TPSG CA5 16967 -0.1548 12.010000
16968 ha 16558 TPSG HA5 16968 0.1282 1.008000
16969 ca 16558 TPSG CA4 16969 -0.1028 12.010000
16970 ha 16558 TPSG HA4 16970 0.1262 1.008000
16971 ca 16558 TPSG CA3 16971 -0.1548 12.010000
16972 ha 16558 TPSG HA3 16972 0.1282 1.008000
16973 OA 16558 TPSG O1 16973 -0.675000 15.99940
16974 HG 16558 TPSG H6 16974 0.400000 2.01600
16975 ha 16559 TPSG HA2 16975 0.1332 1.008000
16976 ca 16559 TPSG CA2 16976 -0.0753 12.010000
16977 ca 16559 TPSG CA1 16977 -0.361 12.010000
16978 si 16559 TPSG Si 16978 1.1 28.085000
16979 ca 16559 TPSG CA6 16979 -0.0753 12.010000
16980 ha 16559 TPSG HH6 16980 0.1332 1.008000
16981 ca 16559 TPSG CA5 16981 -0.1548 12.010000
16982 ha 16559 TPSG HA5 16982 0.1282 1.008000
16983 ca 16559 TPSG CA4 16983 -0.1028 12.010000
16984 ha 16559 TPSG HA4 16984 0.1262 1.008000
16985 ca 16559 TPSG CA3 16985 -0.1548 12.010000
16986 ha 16559 TPSG HA3 16986 0.1282 1.008000
16987 OA 16559 TPSG O1 16987 -0.675000 15.99940
16988 HG 16559 TPSG H6 16988 0.400000 2.01600
16989 ha 16560 TPSG HA2 16989 0.1332 1.008000
16990 ca 16560 TPSG CA2 16990 -0.0753 12.010000
16991 ca 16560 TPSG CA1 16991 -0.361 12.010000
16992 si 16560 TPSG Si 16992 1.1 28.085000
16993 ca 16560 TPSG CA6 16993 -0.0753 12.010000
16994 ha 16560 TPSG HH6 16994 0.1332 1.008000
16995 ca 16560 TPSG CA5 16995 -0.1548 12.010000
16996 ha 16560 TPSG HA5 16996 0.1282 1.008000
16997 ca 16560 TPSG CA4 16997 -0.1028 12.010000
16998 ha 16560 TPSG HA4 16998 0.1262 1.008000
16999 ca 16560 TPSG CA3 16999 -0.1548 12.010000
17000 ha 16560 TPSG HA3 17000 0.1282 1.008000
17001 OA 16560 TPSG O1 17001 -0.675000 15.99940
17002 HG 16560 TPSG H6 17002 0.400000 2.01600
17003 ha 16561 TPSG HA2 17003 0.1332 1.008000
17004 ca 16561 TPSG CA2 17004 -0.0753 12.010000
17005 ca 16561 TPSG CA1 17005 -0.361 12.010000
17006 si 16561 TPSG Si 17006 1.1 28.085000
17007 ca 16561 TPSG CA6 17007 -0.0753 12.010000
17008 ha 16561 TPSG HH6 17008 0.1332 1.008000
17009 ca 16561 TPSG CA5 17009 -0.1548 12.010000
17010 ha 16561 TPSG HA5 17010 0.1282 1.008000
17011 ca 16561 TPSG CA4 17011 -0.1028 12.010000
17012 ha 16561 TPSG HA4 17012 0.1262 1.008000
17013 ca 16561 TPSG CA3 17013 -0.1548 12.010000
17014 ha 16561 TPSG HA3 17014 0.1282 1.008000
17015 OA 16561 TPSG O1 17015 -0.675000 15.99940
17016 HG 16561 TPSG H6 17016 0.400000 2.01600
17017 ha 16562 TPSG HA2 17017 0.1332 1.008000
17018 ca 16562 TPSG CA2 17018 -0.0753 12.010000
17019 ca 16562 TPSG CA1 17019 -0.361 12.010000
17020 si 16562 TPSG Si 17020 1.1 28.085000
17021 ca 16562 TPSG CA6 17021 -0.0753 12.010000
17022 ha 16562 TPSG HH6 17022 0.1332 1.008000
17023 ca 16562 TPSG CA5 17023 -0.1548 12.010000
17024 ha 16562 TPSG HA5 17024 0.1282 1.008000
17025 ca 16562 TPSG CA4 17025 -0.1028 12.010000
17026 ha 16562 TPSG HA4 17026 0.1262 1.008000
17027 ca 16562 TPSG CA3 17027 -0.1548 12.010000
17028 ha 16562 TPSG HA3 17028 0.1282 1.008000
17029 OA 16562 TPSG O1 17029 -0.675000 15.99940
17030 HG 16562 TPSG H6 17030 0.400000 2.01600
17031 ha 16563 TPSG HA2 17031 0.1332 1.008000
17032 ca 16563 TPSG CA2 17032 -0.0753 12.010000
17033 ca 16563 TPSG CA1 17033 -0.361 12.010000
17034 si 16563 TPSG Si 17034 1.1 28.085000
17035 ca 16563 TPSG CA6 17035 -0.0753 12.010000
17036 ha 16563 TPSG HH6 17036 0.1332 1.008000
17037 ca 16563 TPSG CA5 17037 -0.1548 12.010000
17038 ha 16563 TPSG HA5 17038 0.1282 1.008000
17039 ca 16563 TPSG CA4 17039 -0.1028 12.010000
17040 ha 16563 TPSG HA4 17040 0.1262 1.008000
17041 ca 16563 TPSG CA3 17041 -0.1548 12.010000
17042 ha 16563 TPSG HA3 17042 0.1282 1.008000
17043 OA 16563 TPSG O1 17043 -0.675000 15.99940
17044 HG 16563 TPSG H6 17044 0.400000 2.01600
17045 ha 16564 TPSG HA2 17045 0.1332 1.008000
17046 ca 16564 TPSG CA2 17046 -0.0753 12.010000
17047 ca 16564 TPSG CA1 17047 -0.361 12.010000
17048 si 16564 TPSG Si 17048 1.1 28.085000
17049 ca 16564 TPSG CA6 17049 -0.0753 12.010000
17050 ha 16564 TPSG HH6 17050 0.1332 1.008000
17051 ca 16564 TPSG CA5 17051 -0.1548 12.010000
17052 ha 16564 TPSG HA5 17052 0.1282 1.008000
17053 ca 16564 TPSG CA4 17053 -0.1028 12.010000
17054 ha 16564 TPSG HA4 17054 0.1262 1.008000
17055 ca 16564 TPSG CA3 17055 -0.1548 12.010000
17056 ha 16564 TPSG HA3 17056 0.1282 1.008000
17057 OA 16564 TPSG O1 17057 -0.675000 15.99940
17058 HG 16564 TPSG H6 17058 0.400000 2.01600
17059 ha 16565 TPSG HA2 17059 0.1332 1.008000
17060 ca 16565 TPSG CA2 17060 -0.0753 12.010000
17061 ca 16565 TPSG CA1 17061 -0.361 12.010000
17062 si 16565 TPSG Si 17062 1.1 28.085000
17063 ca 16565 TPSG CA6 17063 -0.0753 12.010000
17064 ha 16565 TPSG HH6 17064 0.1332 1.008000
17065 ca 16565 TPSG CA5 17065 -0.1548 12.010000
17066 ha 16565 TPSG HA5 17066 0.1282 1.008000
17067 ca 16565 TPSG CA4 17067 -0.1028 12.010000
17068 ha 16565 TPSG HA4 17068 0.1262 1.008000
17069 ca 16565 TPSG CA3 17069 -0.1548 12.010000
17070 ha 16565 TPSG HA3 17070 0.1282 1.008000
17071 OA 16565 TPSG O1 17071 -0.675000 15.99940
17072 HG 16565 TPSG H6 17072 0.400000 2.01600
17073 ha 16566 TPSG HA2 17073 0.1332 1.008000
17074 ca 16566 TPSG CA2 17074 -0.0753 12.010000
17075 ca 16566 TPSG CA1 17075 -0.361 12.010000
17076 si 16566 TPSG Si 17076 1.1 28.085000
17077 ca 16566 TPSG CA6 17077 -0.0753 12.010000
17078 ha 16566 TPSG HH6 17078 0.1332 1.008000
17079 ca 16566 TPSG CA5 17079 -0.1548 12.010000
17080 ha 16566 TPSG HA5 17080 0.1282 1.008000
17081 ca 16566 TPSG CA4 17081 -0.1028 12.010000
17082 ha 16566 TPSG HA4 17082 0.1262 1.008000
17083 ca 16566 TPSG CA3 17083 -0.1548 12.010000
17084 ha 16566 TPSG HA3 17084 0.1282 1.008000
17085 OA 16566 TPSG O1 17085 -0.675000 15.99940
17086 HG 16566 TPSG H6 17086 0.400000 2.01600
17087 ha 16567 TPSG HA2 17087 0.1332 1.008000
17088 ca 16567 TPSG CA2 17088 -0.0753 12.010000
17089 ca 16567 TPSG CA1 17089 -0.361 12.010000
17090 si 16567 TPSG Si 17090 1.1 28.085000
17091 ca 16567 TPSG CA6 17091 -0.0753 12.010000
17092 ha 16567 TPSG HH6 17092 0.1332 1.008000
17093 ca 16567 TPSG CA5 17093 -0.1548 12.010000
17094 ha 16567 TPSG HA5 17094 0.1282 1.008000
17095 ca 16567 TPSG CA4 17095 -0.1028 12.010000
17096 ha 16567 TPSG HA4 17096 0.1262 1.008000
17097 ca 16567 TPSG CA3 17097 -0.1548 12.010000
17098 ha 16567 TPSG HA3 17098 0.1282 1.008000
17099 OA 16567 TPSG O1 17099 -0.675000 15.99940
17100 HG 16567 TPSG H6 17100 0.400000 2.01600
17101 ha 16568 TPSG HA2 17101 0.1332 1.008000
17102 ca 16568 TPSG CA2 17102 -0.0753 12.010000
17103 ca 16568 TPSG CA1 17103 -0.361 12.010000
17104 si 16568 TPSG Si 17104 1.1 28.085000
17105 ca 16568 TPSG CA6 17105 -0.0753 12.010000
17106 ha 16568 TPSG HH6 17106 0.1332 1.008000
17107 ca 16568 TPSG CA5 17107 -0.1548 12.010000
17108 ha 16568 TPSG HA5 17108 0.1282 1.008000
17109 ca 16568 TPSG CA4 17109 -0.1028 12.010000
17110 ha 16568 TPSG HA4 17110 0.1262 1.008000
17111 ca 16568 TPSG CA3 17111 -0.1548 12.010000
17112 ha 16568 TPSG HA3 17112 0.1282 1.008000
17113 OA 16568 TPSG O1 17113 -0.675000 15.99940
17114 HG 16568 TPSG H6 17114 0.400000 2.01600
17115 ha 16569 TPSG HA2 17115 0.1332 1.008000
17116 ca 16569 TPSG CA2 17116 -0.0753 12.010000
17117 ca 16569 TPSG CA1 17117 -0.361 12.010000
17118 si 16569 TPSG Si 17118 1.1 28.085000
17119 ca 16569 TPSG CA6 17119 -0.0753 12.010000
17120 ha 16569 TPSG HH6 17120 0.1332 1.008000
17121 ca 16569 TPSG CA5 17121 -0.1548 12.010000
17122 ha 16569 TPSG HA5 17122 0.1282 1.008000
17123 ca 16569 TPSG CA4 17123 -0.1028 12.010000
17124 ha 16569 TPSG HA4 17124 0.1262 1.008000
17125 ca 16569 TPSG CA3 17125 -0.1548 12.010000
17126 ha 16569 TPSG HA3 17126 0.1282 1.008000
17127 OA 16569 TPSG O1 17127 -0.675000 15.99940
17128 HG 16569 TPSG H6 17128 0.400000 2.01600
17129 ha 16570 TPSG HA2 17129 0.1332 1.008000
17130 ca 16570 TPSG CA2 17130 -0.0753 12.010000
17131 ca 16570 TPSG CA1 17131 -0.361 12.010000
17132 si 16570 TPSG Si 17132 1.1 28.085000
17133 ca 16570 TPSG CA6 17133 -0.0753 12.010000
17134 ha 16570 TPSG HH6 17134 0.1332 1.008000
17135 ca 16570 TPSG CA5 17135 -0.1548 12.010000
17136 ha 16570 TPSG HA5 17136 0.1282 1.008000
17137 ca 16570 TPSG CA4 17137 -0.1028 12.010000
17138 ha 16570 TPSG HA4 17138 0.1262 1.008000
17139 ca 16570 TPSG CA3 17139 -0.1548 12.010000
17140 ha 16570 TPSG HA3 17140 0.1282 1.008000
17141 OA 16570 TPSG O1 17141 -0.675000 15.99940
17142 HG 16570 TPSG H6 17142 0.400000 2.01600
17143 ha 16571 TPSG HA2 17143 0.1332 1.008000
17144 ca 16571 TPSG CA2 17144 -0.0753 12.010000
17145 ca 16571 TPSG CA1 17145 -0.361 12.010000
17146 si 16571 TPSG Si 17146 1.1 28.085000
17147 ca 16571 TPSG CA6 17147 -0.0753 12.010000
17148 ha 16571 TPSG HH6 17148 0.1332 1.008000
17149 ca 16571 TPSG CA5 17149 -0.1548 12.010000
17150 ha 16571 TPSG HA5 17150 0.1282 1.008000
17151 ca 16571 TPSG CA4 17151 -0.1028 12.010000
17152 ha 16571 TPSG HA4 17152 0.1262 1.008000
17153 ca 16571 TPSG CA3 17153 -0.1548 12.010000
17154 ha 16571 TPSG HA3 17154 0.1282 1.008000
17155 OA 16571 TPSG O1 17155 -0.675000 15.99940
17156 HG 16571 TPSG H6 17156 0.400000 2.01600
17157 ha 16572 TPSG HA2 17157 0.1332 1.008000
17158 ca 16572 TPSG CA2 17158 -0.0753 12.010000
17159 ca 16572 TPSG CA1 17159 -0.361 12.010000
17160 si 16572 TPSG Si 17160 1.1 28.085000
17161 ca 16572 TPSG CA6 17161 -0.0753 12.010000
17162 ha 16572 TPSG HH6 17162 0.1332 1.008000
17163 ca 16572 TPSG CA5 17163 -0.1548 12.010000
17164 ha 16572 TPSG HA5 17164 0.1282 1.008000
17165 ca 16572 TPSG CA4 17165 -0.1028 12.010000
17166 ha 16572 TPSG HA4 17166 0.1262 1.008000
17167 ca 16572 TPSG CA3 17167 -0.1548 12.010000
17168 ha 16572 TPSG HA3 17168 0.1282 1.008000
17169 OA 16572 TPSG O1 17169 -0.675000 15.99940
17170 HG 16572 TPSG H6 17170 0.400000 2.01600
17171 ha 16573 TPSG HA2 17171 0.1332 1.008000
17172 ca 16573 TPSG CA2 17172 -0.0753 12.010000
17173 ca 16573 TPSG CA1 17173 -0.361 12.010000
17174 si 16573 TPSG Si 17174 1.1 28.085000
17175 ca 16573 TPSG CA6 17175 -0.0753 12.010000
17176 ha 16573 TPSG HH6 17176 0.1332 1.008000
17177 ca 16573 TPSG CA5 17177 -0.1548 12.010000
17178 ha 16573 TPSG HA5 17178 0.1282 1.008000
17179 ca 16573 TPSG CA4 17179 -0.1028 12.010000
17180 ha 16573 TPSG HA4 17180 0.1262 1.008000
17181 ca 16573 TPSG CA3 17181 -0.1548 12.010000
17182 ha 16573 TPSG HA3 17182 0.1282 1.008000
17183 OA 16573 TPSG O1 17183 -0.675000 15.99940
17184 HG 16573 TPSG H6 17184 0.400000 2.01600
17185 ha 16574 TPSG HA2 17185 0.1332 1.008000
17186 ca 16574 TPSG CA2 17186 -0.0753 12.010000
17187 ca 16574 TPSG CA1 17187 -0.361 12.010000
17188 si 16574 TPSG Si 17188 1.1 28.085000
17189 ca 16574 TPSG CA6 17189 -0.0753 12.010000
17190 ha 16574 TPSG HH6 17190 0.1332 1.008000
17191 ca 16574 TPSG CA5 17191 -0.1548 12.010000
17192 ha 16574 TPSG HA5 17192 0.1282 1.008000
17193 ca 16574 TPSG CA4 17193 -0.1028 12.010000
17194 ha 16574 TPSG HA4 17194 0.1262 1.008000
17195 ca 16574 TPSG CA3 17195 -0.1548 12.010000
17196 ha 16574 TPSG HA3 17196 0.1282 1.008000
17197 OA 16574 TPSG O1 17197 -0.675000 15.99940
17198 HG 16574 TPSG H6 17198 0.400000 2.01600
17199 ha 16575 TPSG HA2 17199 0.1332 1.008000
17200 ca 16575 TPSG CA2 17200 -0.0753 12.010000
17201 ca 16575 TPSG CA1 17201 -0.361 12.010000
17202 si 16575 TPSG Si 17202 1.1 28.085000
17203 ca 16575 TPSG CA6 17203 -0.0753 12.010000
17204 ha 16575 TPSG HH6 17204 0.1332 1.008000
17205 ca 16575 TPSG CA5 17205 -0.1548 12.010000
17206 ha 16575 TPSG HA5 17206 0.1282 1.008000
17207 ca 16575 TPSG CA4 17207 -0.1028 12.010000
17208 ha 16575 TPSG HA4 17208 0.1262 1.008000
17209 ca 16575 TPSG CA3 17209 -0.1548 12.010000
17210 ha 16575 TPSG HA3 17210 0.1282 1.008000
17211 OA 16575 TPSG O1 17211 -0.675000 15.99940
17212 HG 16575 TPSG H6 17212 0.400000 2.01600
17213 ha 16576 TPSG HA2 17213 0.1332 1.008000
17214 ca 16576 TPSG CA2 17214 -0.0753 12.010000
17215 ca 16576 TPSG CA1 17215 -0.361 12.010000
17216 si 16576 TPSG Si 17216 1.1 28.085000
17217 ca 16576 TPSG CA6 17217 -0.0753 12.010000
17218 ha 16576 TPSG HH6 17218 0.1332 1.008000
17219 ca 16576 TPSG CA5 17219 -0.1548 12.010000
17220 ha 16576 TPSG HA5 17220 0.1282 1.008000
17221 ca 16576 TPSG CA4 17221 -0.1028 12.010000
17222 ha 16576 TPSG HA4 17222 0.1262 1.008000
17223 ca 16576 TPSG CA3 17223 -0.1548 12.010000
17224 ha 16576 TPSG HA3 17224 0.1282 1.008000
17225 OA 16576 TPSG O1 17225 -0.675000 15.99940
17226 HG 16576 TPSG H6 17226 0.400000 2.01600
17227 ha 16577 TPSG HA2 17227 0.1332 1.008000
17228 ca 16577 TPSG CA2 17228 -0.0753 12.010000
17229 ca 16577 TPSG CA1 17229 -0.361 12.010000
17230 si 16577 TPSG Si 17230 1.1 28.085000
17231 ca 16577 TPSG CA6 17231 -0.0753 12.010000
17232 ha 16577 TPSG HH6 17232 0.1332 1.008000
17233 ca 16577 TPSG CA5 17233 -0.1548 12.010000
17234 ha 16577 TPSG HA5 17234 0.1282 1.008000
17235 ca 16577 TPSG CA4 17235 -0.1028 12.010000
17236 ha 16577 TPSG HA4 17236 0.1262 1.008000
17237 ca 16577 TPSG CA3 17237 -0.1548 12.010000
17238 ha 16577 TPSG HA3 17238 0.1282 1.008000
17239 OA 16577 TPSG O1 17239 -0.675000 15.99940
17240 HG 16577 TPSG H6 17240 0.400000 2.01600
17241 ha 16578 TPSG HA2 17241 0.1332 1.008000
17242 ca 16578 TPSG CA2 17242 -0.0753 12.010000
17243 ca 16578 TPSG CA1 17243 -0.361 12.010000
17244 si 16578 TPSG Si 17244 1.1 28.085000
17245 ca 16578 TPSG CA6 17245 -0.0753 12.010000
17246 ha 16578 TPSG HH6 17246 0.1332 1.008000
17247 ca 16578 TPSG CA5 17247 -0.1548 12.010000
17248 ha 16578 TPSG HA5 17248 0.1282 1.008000
17249 ca 16578 TPSG CA4 17249 -0.1028 12.010000
17250 ha 16578 TPSG HA4 17250 0.1262 1.008000
17251 ca 16578 TPSG CA3 17251 -0.1548 12.010000
17252 ha 16578 TPSG HA3 17252 0.1282 1.008000
17253 OA 16578 TPSG O1 17253 -0.675000 15.99940
17254 HG 16578 TPSG H6 17254 0.400000 2.01600
17255 ha 16579 TPSG HA2 17255 0.1332 1.008000
17256 ca 16579 TPSG CA2 17256 -0.0753 12.010000
17257 ca 16579 TPSG CA1 17257 -0.361 12.010000
17258 si 16579 TPSG Si 17258 1.1 28.085000
17259 ca 16579 TPSG CA6 17259 -0.0753 12.010000
17260 ha 16579 TPSG HH6 17260 0.1332 1.008000
17261 ca 16579 TPSG CA5 17261 -0.1548 12.010000
17262 ha 16579 TPSG HA5 17262 0.1282 1.008000
17263 ca 16579 TPSG CA4 17263 -0.1028 12.010000
17264 ha 16579 TPSG HA4 17264 0.1262 1.008000
17265 ca 16579 TPSG CA3 17265 -0.1548 12.010000
17266 ha 16579 TPSG HA3 17266 0.1282 1.008000
17267 OA 16579 TPSG O1 17267 -0.675000 15.99940
17268 HG 16579 TPSG H6 17268 0.400000 2.01600
17269 ha 16580 TPSG HA2 17269 0.1332 1.008000
17270 ca 16580 TPSG CA2 17270 -0.0753 12.010000
17271 ca 16580 TPSG CA1 17271 -0.361 12.010000
17272 si 16580 TPSG Si 17272 1.1 28.085000
17273 ca 16580 TPSG CA6 17273 -0.0753 12.010000
17274 ha 16580 TPSG HH6 17274 0.1332 1.008000
17275 ca 16580 TPSG CA5 17275 -0.1548 12.010000
17276 ha 16580 TPSG HA5 17276 0.1282 1.008000
17277 ca 16580 TPSG CA4 17277 -0.1028 12.010000
17278 ha 16580 TPSG HA4 17278 0.1262 1.008000
17279 ca 16580 TPSG CA3 17279 -0.1548 12.010000
17280 ha 16580 TPSG HA3 17280 0.1282 1.008000
17281 OA 16580 TPSG O1 17281 -0.675000 15.99940
17282 HG 16580 TPSG H6 17282 0.400000 2.01600
17283 ha 16581 TPSG HA2 17283 0.1332 1.008000
17284 ca 16581 TPSG CA2 17284 -0.0753 12.010000
17285 ca 16581 TPSG CA1 17285 -0.361 12.010000
17286 si 16581 TPSG Si 17286 1.1 28.085000
17287 ca 16581 TPSG CA6 17287 -0.0753 12.010000
17288 ha 16581 TPSG HH6 17288 0.1332 1.008000
17289 ca 16581 TPSG CA5 17289 -0.1548 12.010000
17290 ha 16581 TPSG HA5 17290 0.1282 1.008000
17291 ca 16581 TPSG CA4 17291 -0.1028 12.010000
17292 ha 16581 TPSG HA4 17292 0.1262 1.008000
17293 ca 16581 TPSG CA3 17293 -0.1548 12.010000
17294 ha 16581 TPSG HA3 17294 0.1282 1.008000
17295 OA 16581 TPSG O1 17295 -0.675000 15.99940
17296 HG 16581 TPSG H6 17296 0.400000 2.01600
17297 ha 16582 TPSG HA2 17297 0.1332 1.008000
17298 ca 16582 TPSG CA2 17298 -0.0753 12.010000
17299 ca 16582 TPSG CA1 17299 -0.361 12.010000
17300 si 16582 TPSG Si 17300 1.1 28.085000
17301 ca 16582 TPSG CA6 17301 -0.0753 12.010000
17302 ha 16582 TPSG HH6 17302 0.1332 1.008000
17303 ca 16582 TPSG CA5 17303 -0.1548 12.010000
17304 ha 16582 TPSG HA5 17304 0.1282 1.008000
17305 ca 16582 TPSG CA4 17305 -0.1028 12.010000
17306 ha 16582 TPSG HA4 17306 0.1262 1.008000
17307 ca 16582 TPSG CA3 17307 -0.1548 12.010000
17308 ha 16582 TPSG HA3 17308 0.1282 1.008000
17309 OA 16582 TPSG O1 17309 -0.675000 15.99940
17310 HG 16582 TPSG H6 17310 0.400000 2.01600
17311 ha 16583 TPSG HA2 17311 0.1332 1.008000
17312 ca 16583 TPSG CA2 17312 -0.0753 12.010000
17313 ca 16583 TPSG CA1 17313 -0.361 12.010000
17314 si 16583 TPSG Si 17314 1.1 28.085000
17315 ca 16583 TPSG CA6 17315 -0.0753 12.010000
17316 ha 16583 TPSG HH6 17316 0.1332 1.008000
17317 ca 16583 TPSG CA5 17317 -0.1548 12.010000
17318 ha 16583 TPSG HA5 17318 0.1282 1.008000
17319 ca 16583 TPSG CA4 17319 -0.1028 12.010000
17320 ha 16583 TPSG HA4 17320 0.1262 1.008000
17321 ca 16583 TPSG CA3 17321 -0.1548 12.010000
17322 ha 16583 TPSG HA3 17322 0.1282 1.008000
17323 OA 16583 TPSG O1 17323 -0.675000 15.99940
17324 HG 16583 TPSG H6 17324 0.400000 2.01600
17325 ha 16584 TPSG HA2 17325 0.1332 1.008000
17326 ca 16584 TPSG CA2 17326 -0.0753 12.010000
17327 ca 16584 TPSG CA1 17327 -0.361 12.010000
17328 si 16584 TPSG Si 17328 1.1 28.085000
17329 ca 16584 TPSG CA6 17329 -0.0753 12.010000
17330 ha 16584 TPSG HH6 17330 0.1332 1.008000
17331 ca 16584 TPSG CA5 17331 -0.1548 12.010000
17332 ha 16584 TPSG HA5 17332 0.1282 1.008000
17333 ca 16584 TPSG CA4 17333 -0.1028 12.010000
17334 ha 16584 TPSG HA4 17334 0.1262 1.008000
17335 ca 16584 TPSG CA3 17335 -0.1548 12.010000
17336 ha 16584 TPSG HA3 17336 0.1282 1.008000
17337 OA 16584 TPSG O1 17337 -0.675000 15.99940
17338 HG 16584 TPSG H6 17338 0.400000 2.01600
17339 ha 16585 TPSG HA2 17339 0.1332 1.008000
17340 ca 16585 TPSG CA2 17340 -0.0753 12.010000
17341 ca 16585 TPSG CA1 17341 -0.361 12.010000
17342 si 16585 TPSG Si 17342 1.1 28.085000
17343 ca 16585 TPSG CA6 17343 -0.0753 12.010000
17344 ha 16585 TPSG HH6 17344 0.1332 1.008000
17345 ca 16585 TPSG CA5 17345 -0.1548 12.010000
17346 ha 16585 TPSG HA5 17346 0.1282 1.008000
17347 ca 16585 TPSG CA4 17347 -0.1028 12.010000
17348 ha 16585 TPSG HA4 17348 0.1262 1.008000
17349 ca 16585 TPSG CA3 17349 -0.1548 12.010000
17350 ha 16585 TPSG HA3 17350 0.1282 1.008000
17351 OA 16585 TPSG O1 17351 -0.675000 15.99940
17352 HG 16585 TPSG H6 17352 0.400000 2.01600
17353 ha 16586 TPSG HA2 17353 0.1332 1.008000
17354 ca 16586 TPSG CA2 17354 -0.0753 12.010000
17355 ca 16586 TPSG CA1 17355 -0.361 12.010000
17356 si 16586 TPSG Si 17356 1.1 28.085000
17357 ca 16586 TPSG CA6 17357 -0.0753 12.010000
17358 ha 16586 TPSG HH6 17358 0.1332 1.008000
17359 ca 16586 TPSG CA5 17359 -0.1548 12.010000
17360 ha 16586 TPSG HA5 17360 0.1282 1.008000
17361 ca 16586 TPSG CA4 17361 -0.1028 12.010000
17362 ha 16586 TPSG HA4 17362 0.1262 1.008000
17363 ca 16586 TPSG CA3 17363 -0.1548 12.010000
17364 ha 16586 TPSG HA3 17364 0.1282 1.008000
17365 OA 16586 TPSG O1 17365 -0.675000 15.99940
17366 HG 16586 TPSG H6 17366 0.400000 2.01600
17367 ha 16587 TPSG HA2 17367 0.1332 1.008000
17368 ca 16587 TPSG CA2 17368 -0.0753 12.010000
17369 ca 16587 TPSG CA1 17369 -0.361 12.010000
17370 si 16587 TPSG Si 17370 1.1 28.085000
17371 ca 16587 TPSG CA6 17371 -0.0753 12.010000
17372 ha 16587 TPSG HH6 17372 0.1332 1.008000
17373 ca 16587 TPSG CA5 17373 -0.1548 12.010000
17374 ha 16587 TPSG HA5 17374 0.1282 1.008000
17375 ca 16587 TPSG CA4 17375 -0.1028 12.010000
17376 ha 16587 TPSG HA4 17376 0.1262 1.008000
17377 ca 16587 TPSG CA3 17377 -0.1548 12.010000
17378 ha 16587 TPSG HA3 17378 0.1282 1.008000
17379 OA 16587 TPSG O1 17379 -0.675000 15.99940
17380 HG 16587 TPSG H6 17380 0.400000 2.01600
17381 ha 16588 TPSG HA2 17381 0.1332 1.008000
17382 ca 16588 TPSG CA2 17382 -0.0753 12.010000
17383 ca 16588 TPSG CA1 17383 -0.361 12.010000
17384 si 16588 TPSG Si 17384 1.1 28.085000
17385 ca 16588 TPSG CA6 17385 -0.0753 12.010000
17386 ha 16588 TPSG HH6 17386 0.1332 1.008000
17387 ca 16588 TPSG CA5 17387 -0.1548 12.010000
17388 ha 16588 TPSG HA5 17388 0.1282 1.008000
17389 ca 16588 TPSG CA4 17389 -0.1028 12.010000
17390 ha 16588 TPSG HA4 17390 0.1262 1.008000
17391 ca 16588 TPSG CA3 17391 -0.1548 12.010000
17392 ha 16588 TPSG HA3 17392 0.1282 1.008000
17393 OA 16588 TPSG O1 17393 -0.675000 15.99940
17394 HG 16588 TPSG H6 17394 0.400000 2.01600
17395 ha 16589 TPSG HA2 17395 0.1332 1.008000
17396 ca 16589 TPSG CA2 17396 -0.0753 12.010000
17397 ca 16589 TPSG CA1 17397 -0.361 12.010000
17398 si 16589 TPSG Si 17398 1.1 28.085000
17399 ca 16589 TPSG CA6 17399 -0.0753 12.010000
17400 ha 16589 TPSG HH6 17400 0.1332 1.008000
17401 ca 16589 TPSG CA5 17401 -0.1548 12.010000
17402 ha 16589 TPSG HA5 17402 0.1282 1.008000
17403 ca 16589 TPSG CA4 17403 -0.1028 12.010000
17404 ha 16589 TPSG HA4 17404 0.1262 1.008000
17405 ca 16589 TPSG CA3 17405 -0.1548 12.010000
17406 ha 16589 TPSG HA3 17406 0.1282 1.008000
17407 OA 16589 TPSG O1 17407 -0.675000 15.99940
17408 HG 16589 TPSG H6 17408 0.400000 2.01600
17409 ha 16590 TPSG HA2 17409 0.1332 1.008000
17410 ca 16590 TPSG CA2 17410 -0.0753 12.010000
17411 ca 16590 TPSG CA1 17411 -0.361 12.010000
17412 si 16590 TPSG Si 17412 1.1 28.085000
17413 ca 16590 TPSG CA6 17413 -0.0753 12.010000
17414 ha 16590 TPSG HH6 17414 0.1332 1.008000
17415 ca 16590 TPSG CA5 17415 -0.1548 12.010000
17416 ha 16590 TPSG HA5 17416 0.1282 1.008000
17417 ca 16590 TPSG CA4 17417 -0.1028 12.010000
17418 ha 16590 TPSG HA4 17418 0.1262 1.008000
17419 ca 16590 TPSG CA3 17419 -0.1548 12.010000
17420 ha 16590 TPSG HA3 17420 0.1282 1.008000
17421 OA 16590 TPSG O1 17421 -0.675000 15.99940
17422 HG 16590 TPSG H6 17422 0.400000 2.01600
17423 ha 16591 TPSG HA2 17423 0.1332 1.008000
17424 ca 16591 TPSG CA2 17424 -0.0753 12.010000
17425 ca 16591 TPSG CA1 17425 -0.361 12.010000
17426 si 16591 TPSG Si 17426 1.1 28.085000
17427 ca 16591 TPSG CA6 17427 -0.0753 12.010000
17428 ha 16591 TPSG HH6 17428 0.1332 1.008000
17429 ca 16591 TPSG CA5 17429 -0.1548 12.010000
17430 ha 16591 TPSG HA5 17430 0.1282 1.008000
17431 ca 16591 TPSG CA4 17431 -0.1028 12.010000
17432 ha 16591 TPSG HA4 17432 0.1262 1.008000
17433 ca 16591 TPSG CA3 17433 -0.1548 12.010000
17434 ha 16591 TPSG HA3 17434 0.1282 1.008000
17435 OA 16591 TPSG O1 17435 -0.675000 15.99940
17436 HG 16591 TPSG H6 17436 0.400000 2.01600
17437 ha 16592 TPSG HA2 17437 0.1332 1.008000
17438 ca 16592 TPSG CA2 17438 -0.0753 12.010000
17439 ca 16592 TPSG CA1 17439 -0.361 12.010000
17440 si 16592 TPSG Si 17440 1.1 28.085000
17441 ca 16592 TPSG CA6 17441 -0.0753 12.010000
17442 ha 16592 TPSG HH6 17442 0.1332 1.008000
17443 ca 16592 TPSG CA5 17443 -0.1548 12.010000
17444 ha 16592 TPSG HA5 17444 0.1282 1.008000
17445 ca 16592 TPSG CA4 17445 -0.1028 12.010000
17446 ha 16592 TPSG HA4 17446 0.1262 1.008000
17447 ca 16592 TPSG CA3 17447 -0.1548 12.010000
17448 ha 16592 TPSG HA3 17448 0.1282 1.008000
17449 OA 16592 TPSG O1 17449 -0.675000 15.99940
17450 HG 16592 TPSG H6 17450 0.400000 2.01600
17451 ha 16593 TPSG HA2 17451 0.1332 1.008000
17452 ca 16593 TPSG CA2 17452 -0.0753 12.010000
17453 ca 16593 TPSG CA1 17453 -0.361 12.010000
17454 si 16593 TPSG Si 17454 1.1 28.085000
17455 ca 16593 TPSG CA6 17455 -0.0753 12.010000
17456 ha 16593 TPSG HH6 17456 0.1332 1.008000
17457 ca 16593 TPSG CA5 17457 -0.1548 12.010000
17458 ha 16593 TPSG HA5 17458 0.1282 1.008000
17459 ca 16593 TPSG CA4 17459 -0.1028 12.010000
17460 ha 16593 TPSG HA4 17460 0.1262 1.008000
17461 ca 16593 TPSG CA3 17461 -0.1548 12.010000
17462 ha 16593 TPSG HA3 17462 0.1282 1.008000
17463 OA 16593 TPSG O1 17463 -0.675000 15.99940
17464 HG 16593 TPSG H6 17464 0.400000 2.01600
17465 ha 16594 TPSG HA2 17465 0.1332 1.008000
17466 ca 16594 TPSG CA2 17466 -0.0753 12.010000
17467 ca 16594 TPSG CA1 17467 -0.361 12.010000
17468 si 16594 TPSG Si 17468 1.1 28.085000
17469 ca 16594 TPSG CA6 17469 -0.0753 12.010000
17470 ha 16594 TPSG HH6 17470 0.1332 1.008000
17471 ca 16594 TPSG CA5 17471 -0.1548 12.010000
17472 ha 16594 TPSG HA5 17472 0.1282 1.008000
17473 ca 16594 TPSG CA4 17473 -0.1028 12.010000
17474 ha 16594 TPSG HA4 17474 0.1262 1.008000
17475 ca 16594 TPSG CA3 17475 -0.1548 12.010000
17476 ha 16594 TPSG HA3 17476 0.1282 1.008000
17477 OA 16594 TPSG O1 17477 -0.675000 15.99940
17478 HG 16594 TPSG H6 17478 0.400000 2.01600
17479 ha 16595 TPSG HA2 17479 0.1332 1.008000
17480 ca 16595 TPSG CA2 17480 -0.0753 12.010000
17481 ca 16595 TPSG CA1 17481 -0.361 12.010000
17482 si 16595 TPSG Si 17482 1.1 28.085000
17483 ca 16595 TPSG CA6 17483 -0.0753 12.010000
17484 ha 16595 TPSG HH6 17484 0.1332 1.008000
17485 ca 16595 TPSG CA5 17485 -0.1548 12.010000
17486 ha 16595 TPSG HA5 17486 0.1282 1.008000
17487 ca 16595 TPSG CA4 17487 -0.1028 12.010000
17488 ha 16595 TPSG HA4 17488 0.1262 1.008000
17489 ca 16595 TPSG CA3 17489 -0.1548 12.010000
17490 ha 16595 TPSG HA3 17490 0.1282 1.008000
17491 OA 16595 TPSG O1 17491 -0.675000 15.99940
17492 HG 16595 TPSG H6 17492 0.400000 2.01600
17493 ha 16596 TPSG HA2 17493 0.1332 1.008000
17494 ca 16596 TPSG CA2 17494 -0.0753 12.010000
17495 ca 16596 TPSG CA1 17495 -0.361 12.010000
17496 si 16596 TPSG Si 17496 1.1 28.085000
17497 ca 16596 TPSG CA6 17497 -0.0753 12.010000
17498 ha 16596 TPSG HH6 17498 0.1332 1.008000
17499 ca 16596 TPSG CA5 17499 -0.1548 12.010000
17500 ha 16596 TPSG HA5 17500 0.1282 1.008000
17501 ca 16596 TPSG CA4 17501 -0.1028 12.010000
17502 ha 16596 TPSG HA4 17502 0.1262 1.008000
17503 ca 16596 TPSG CA3 17503 -0.1548 12.010000
17504 ha 16596 TPSG HA3 17504 0.1282 1.008000
17505 OA 16596 TPSG O1 17505 -0.675000 15.99940
17506 HG 16596 TPSG H6 17506 0.400000 2.01600
17507 ha 16597 TPSG HA2 17507 0.1332 1.008000
17508 ca 16597 TPSG CA2 17508 -0.0753 12.010000
17509 ca 16597 TPSG CA1 17509 -0.361 12.010000
17510 si 16597 TPSG Si 17510 1.1 28.085000
17511 ca 16597 TPSG CA6 17511 -0.0753 12.010000
17512 ha 16597 TPSG HH6 17512 0.1332 1.008000
17513 ca 16597 TPSG CA5 17513 -0.1548 12.010000
17514 ha 16597 TPSG HA5 17514 0.1282 1.008000
17515 ca 16597 TPSG CA4 17515 -0.1028 12.010000
17516 ha 16597 TPSG HA4 17516 0.1262 1.008000
17517 ca 16597 TPSG CA3 17517 -0.1548 12.010000
17518 ha 16597 TPSG HA3 17518 0.1282 1.008000
17519 OA 16597 TPSG O1 17519 -0.675000 15.99940
17520 HG 16597 TPSG H6 17520 0.400000 2.01600
17521 ha 16598 TPSG HA2 17521 0.1332 1.008000
17522 ca 16598 TPSG CA2 17522 -0.0753 12.010000
17523 ca 16598 TPSG CA1 17523 -0.361 12.010000
17524 si 16598 TPSG Si 17524 1.1 28.085000
17525 ca 16598 TPSG CA6 17525 -0.0753 12.010000
17526 ha 16598 TPSG HH6 17526 0.1332 1.008000
17527 ca 16598 TPSG CA5 17527 -0.1548 12.010000
17528 ha 16598 TPSG HA5 17528 0.1282 1.008000
17529 ca 16598 TPSG CA4 17529 -0.1028 12.010000
17530 ha 16598 TPSG HA4 17530 0.1262 1.008000
17531 ca 16598 TPSG CA3 17531 -0.1548 12.010000
17532 ha 16598 TPSG HA3 17532 0.1282 1.008000
17533 OA 16598 TPSG O1 17533 -0.675000 15.99940
17534 HG 16598 TPSG H6 17534 0.400000 2.01600
17535 ha 16599 TPSG HA2 17535 0.1332 1.008000
17536 ca 16599 TPSG CA2 17536 -0.0753 12.010000
17537 ca 16599 TPSG CA1 17537 -0.361 12.010000
17538 si 16599 TPSG Si 17538 1.1 28.085000
17539 ca 16599 TPSG CA6 17539 -0.0753 12.010000
17540 ha 16599 TPSG HH6 17540 0.1332 1.008000
17541 ca 16599 TPSG CA5 17541 -0.1548 12.010000
17542 ha 16599 TPSG HA5 17542 0.1282 1.008000
17543 ca 16599 TPSG CA4 17543 -0.1028 12.010000
17544 ha 16599 TPSG HA4 17544 0.1262 1.008000
17545 ca 16599 TPSG CA3 17545 -0.1548 12.010000
17546 ha 16599 TPSG HA3 17546 0.1282 1.008000
17547 OA 16599 TPSG O1 17547 -0.675000 15.99940
17548 HG 16599 TPSG H6 17548 0.400000 2.01600
17549 ha 16600 TPSG HA2 17549 0.1332 1.008000
17550 ca 16600 TPSG CA2 17550 -0.0753 12.010000
17551 ca 16600 TPSG CA1 17551 -0.361 12.010000
17552 si 16600 TPSG Si 17552 1.1 28.085000
17553 ca 16600 TPSG CA6 17553 -0.0753 12.010000
17554 ha 16600 TPSG HH6 17554 0.1332 1.008000
17555 ca 16600 TPSG CA5 17555 -0.1548 12.010000
17556 ha 16600 TPSG HA5 17556 0.1282 1.008000
17557 ca 16600 TPSG CA4 17557 -0.1028 12.010000
17558 ha 16600 TPSG HA4 17558 0.1262 1.008000
17559 ca 16600 TPSG CA3 17559 -0.1548 12.010000
17560 ha 16600 TPSG HA3 17560 0.1282 1.008000
17561 OA 16600 TPSG O1 17561 -0.675000 15.99940
17562 HG 16600 TPSG H6 17562 0.400000 2.01600
17563 ha 16601 TPSG HA2 17563 0.1332 1.008000
17564 ca 16601 TPSG CA2 17564 -0.0753 12.010000
17565 ca 16601 TPSG CA1 17565 -0.361 12.010000
17566 si 16601 TPSG Si 17566 1.1 28.085000
17567 ca 16601 TPSG CA6 17567 -0.0753 12.010000
17568 ha 16601 TPSG HH6 17568 0.1332 1.008000
17569 ca 16601 TPSG CA5 17569 -0.1548 12.010000
17570 ha 16601 TPSG HA5 17570 0.1282 1.008000
17571 ca 16601 TPSG CA4 17571 -0.1028 12.010000
17572 ha 16601 TPSG HA4 17572 0.1262 1.008000
17573 ca 16601 TPSG CA3 17573 -0.1548 12.010000
17574 ha 16601 TPSG HA3 17574 0.1282 1.008000
17575 OA 16601 TPSG O1 17575 -0.675000 15.99940
17576 HG 16601 TPSG H6 17576 0.400000 2.01600
17577 ha 16602 TPSG HA2 17577 0.1332 1.008000
17578 ca 16602 TPSG CA2 17578 -0.0753 12.010000
17579 ca 16602 TPSG CA1 17579 -0.361 12.010000
17580 si 16602 TPSG Si 17580 1.1 28.085000
17581 ca 16602 TPSG CA6 17581 -0.0753 12.010000
17582 ha 16602 TPSG HH6 17582 0.1332 1.008000
17583 ca 16602 TPSG CA5 17583 -0.1548 12.010000
17584 ha 16602 TPSG HA5 17584 0.1282 1.008000
17585 ca 16602 TPSG CA4 17585 -0.1028 12.010000
17586 ha 16602 TPSG HA4 17586 0.1262 1.008000
17587 ca 16602 TPSG CA3 17587 -0.1548 12.010000
17588 ha 16602 TPSG HA3 17588 0.1282 1.008000
17589 OA 16602 TPSG O1 17589 -0.675000 15.99940
17590 HG 16602 TPSG H6 17590 0.400000 2.01600
17591 ha 16603 TPSG HA2 17591 0.1332 1.008000
17592 ca 16603 TPSG CA2 17592 -0.0753 12.010000
17593 ca 16603 TPSG CA1 17593 -0.361 12.010000
17594 si 16603 TPSG Si 17594 1.1 28.085000
17595 ca 16603 TPSG CA6 17595 -0.0753 12.010000
17596 ha 16603 TPSG HH6 17596 0.1332 1.008000
17597 ca 16603 TPSG CA5 17597 -0.1548 12.010000
17598 ha 16603 TPSG HA5 17598 0.1282 1.008000
17599 ca 16603 TPSG CA4 17599 -0.1028 12.010000
17600 ha 16603 TPSG HA4 17600 0.1262 1.008000
17601 ca 16603 TPSG CA3 17601 -0.1548 12.010000
17602 ha 16603 TPSG HA3 17602 0.1282 1.008000
17603 OA 16603 TPSG O1 17603 -0.675000 15.99940
17604 HG 16603 TPSG H6 17604 0.400000 2.01600
17605 ha 16604 TPSG HA2 17605 0.1332 1.008000
17606 ca 16604 TPSG CA2 17606 -0.0753 12.010000
17607 ca 16604 TPSG CA1 17607 -0.361 12.010000
17608 si 16604 TPSG Si 17608 1.1 28.085000
17609 ca 16604 TPSG CA6 17609 -0.0753 12.010000
17610 ha 16604 TPSG HH6 17610 0.1332 1.008000
17611 ca 16604 TPSG CA5 17611 -0.1548 12.010000
17612 ha 16604 TPSG HA5 17612 0.1282 1.008000
17613 ca 16604 TPSG CA4 17613 -0.1028 12.010000
17614 ha 16604 TPSG HA4 17614 0.1262 1.008000
17615 ca 16604 TPSG CA3 17615 -0.1548 12.010000
17616 ha 16604 TPSG HA3 17616 0.1282 1.008000
17617 OA 16604 TPSG O1 17617 -0.675000 15.99940
17618 HG 16604 TPSG H6 17618 0.400000 2.01600
17619 ha 16605 TPSG HA2 17619 0.1332 1.008000
17620 ca 16605 TPSG CA2 17620 -0.0753 12.010000
17621 ca 16605 TPSG CA1 17621 -0.361 12.010000
17622 si 16605 TPSG Si 17622 1.1 28.085000
17623 ca 16605 TPSG CA6 17623 -0.0753 12.010000
17624 ha 16605 TPSG HH6 17624 0.1332 1.008000
17625 ca 16605 TPSG CA5 17625 -0.1548 12.010000
17626 ha 16605 TPSG HA5 17626 0.1282 1.008000
17627 ca 16605 TPSG CA4 17627 -0.1028 12.010000
17628 ha 16605 TPSG HA4 17628 0.1262 1.008000
17629 ca 16605 TPSG CA3 17629 -0.1548 12.010000
17630 ha 16605 TPSG HA3 17630 0.1282 1.008000
17631 OA 16605 TPSG O1 17631 -0.675000 15.99940
17632 HG 16605 TPSG H6 17632 0.400000 2.01600
17633 ha 16606 TPSG HA2 17633 0.1332 1.008000
17634 ca 16606 TPSG CA2 17634 -0.0753 12.010000
17635 ca 16606 TPSG CA1 17635 -0.361 12.010000
17636 si 16606 TPSG Si 17636 1.1 28.085000
17637 ca 16606 TPSG CA6 17637 -0.0753 12.010000
17638 ha 16606 TPSG HH6 17638 0.1332 1.008000
17639 ca 16606 TPSG CA5 17639 -0.1548 12.010000
17640 ha 16606 TPSG HA5 17640 0.1282 1.008000
17641 ca 16606 TPSG CA4 17641 -0.1028 12.010000
17642 ha 16606 TPSG HA4 17642 0.1262 1.008000
17643 ca 16606 TPSG CA3 17643 -0.1548 12.010000
17644 ha 16606 TPSG HA3 17644 0.1282 1.008000
17645 OA 16606 TPSG O1 17645 -0.675000 15.99940
17646 HG 16606 TPSG H6 17646 0.400000 2.01600
17647 ha 16607 TPSG HA2 17647 0.1332 1.008000
17648 ca 16607 TPSG CA2 17648 -0.0753 12.010000
17649 ca 16607 TPSG CA1 17649 -0.361 12.010000
17650 si 16607 TPSG Si 17650 1.1 28.085000
17651 ca 16607 TPSG CA6 17651 -0.0753 12.010000
17652 ha 16607 TPSG HH6 17652 0.1332 1.008000
17653 ca 16607 TPSG CA5 17653 -0.1548 12.010000
17654 ha 16607 TPSG HA5 17654 0.1282 1.008000
17655 ca 16607 TPSG CA4 17655 -0.1028 12.010000
17656 ha 16607 TPSG HA4 17656 0.1262 1.008000
17657 ca 16607 TPSG CA3 17657 -0.1548 12.010000
17658 ha 16607 TPSG HA3 17658 0.1282 1.008000
17659 OA 16607 TPSG O1 17659 -0.675000 15.99940
17660 HG 16607 TPSG H6 17660 0.400000 2.01600
17661 ha 16608 TPSG HA2 17661 0.1332 1.008000
17662 ca 16608 TPSG CA2 17662 -0.0753 12.010000
17663 ca 16608 TPSG CA1 17663 -0.361 12.010000
17664 si 16608 TPSG Si 17664 1.1 28.085000
17665 ca 16608 TPSG CA6 17665 -0.0753 12.010000
17666 ha 16608 TPSG HH6 17666 0.1332 1.008000
17667 ca 16608 TPSG CA5 17667 -0.1548 12.010000
17668 ha 16608 TPSG HA5 17668 0.1282 1.008000
17669 ca 16608 TPSG CA4 17669 -0.1028 12.010000
17670 ha 16608 TPSG HA4 17670 0.1262 1.008000
17671 ca 16608 TPSG CA3 17671 -0.1548 12.010000
17672 ha 16608 TPSG HA3 17672 0.1282 1.008000
17673 OA 16608 TPSG O1 17673 -0.675000 15.99940
17674 HG 16608 TPSG H6 17674 0.400000 2.01600
17675 ha 16609 TPSG HA2 17675 0.1332 1.008000
17676 ca 16609 TPSG CA2 17676 -0.0753 12.010000
17677 ca 16609 TPSG CA1 17677 -0.361 12.010000
17678 si 16609 TPSG Si 17678 1.1 28.085000
17679 ca 16609 TPSG CA6 17679 -0.0753 12.010000
17680 ha 16609 TPSG HH6 17680 0.1332 1.008000
17681 ca 16609 TPSG CA5 17681 -0.1548 12.010000
17682 ha 16609 TPSG HA5 17682 0.1282 1.008000
17683 ca 16609 TPSG CA4 17683 -0.1028 12.010000
17684 ha 16609 TPSG HA4 17684 0.1262 1.008000
17685 ca 16609 TPSG CA3 17685 -0.1548 12.010000
17686 ha 16609 TPSG HA3 17686 0.1282 1.008000
17687 OA 16609 TPSG O1 17687 -0.675000 15.99940
17688 HG 16609 TPSG H6 17688 0.400000 2.01600
17689 ha 16610 TPSG HA2 17689 0.1332 1.008000
17690 ca 16610 TPSG CA2 17690 -0.0753 12.010000
17691 ca 16610 TPSG CA1 17691 -0.361 12.010000
17692 si 16610 TPSG Si 17692 1.1 28.085000
17693 ca 16610 TPSG CA6 17693 -0.0753 12.010000
17694 ha 16610 TPSG HH6 17694 0.1332 1.008000
17695 ca 16610 TPSG CA5 17695 -0.1548 12.010000
17696 ha 16610 TPSG HA5 17696 0.1282 1.008000
17697 ca 16610 TPSG CA4 17697 -0.1028 12.010000
17698 ha 16610 TPSG HA4 17698 0.1262 1.008000
17699 ca 16610 TPSG CA3 17699 -0.1548 12.010000
17700 ha 16610 TPSG HA3 17700 0.1282 1.008000
17701 OA 16610 TPSG O1 17701 -0.675000 15.99940
17702 HG 16610 TPSG H6 17702 0.400000 2.01600
17703 ha 16611 TPSG HA2 17703 0.1332 1.008000
17704 ca 16611 TPSG CA2 17704 -0.0753 12.010000
17705 ca 16611 TPSG CA1 17705 -0.361 12.010000
17706 si 16611 TPSG Si 17706 1.1 28.085000
17707 ca 16611 TPSG CA6 17707 -0.0753 12.010000
17708 ha 16611 TPSG HH6 17708 0.1332 1.008000
17709 ca 16611 TPSG CA5 17709 -0.1548 12.010000
17710 ha 16611 TPSG HA5 17710 0.1282 1.008000
17711 ca 16611 TPSG CA4 17711 -0.1028 12.010000
17712 ha 16611 TPSG HA4 17712 0.1262 1.008000
17713 ca 16611 TPSG CA3 17713 -0.1548 12.010000
17714 ha 16611 TPSG HA3 17714 0.1282 1.008000
17715 OA 16611 TPSG O1 17715 -0.675000 15.99940
17716 HG 16611 TPSG H6 17716 0.400000 2.01600
17717 ha 16612 TPSG HA2 17717 0.1332 1.008000
17718 ca 16612 TPSG CA2 17718 -0.0753 12.010000
17719 ca 16612 TPSG CA1 17719 -0.361 12.010000
17720 si 16612 TPSG Si 17720 1.1 28.085000
17721 ca 16612 TPSG CA6 17721 -0.0753 12.010000
17722 ha 16612 TPSG HH6 17722 0.1332 1.008000
17723 ca 16612 TPSG CA5 17723 -0.1548 12.010000
17724 ha 16612 TPSG HA5 17724 0.1282 1.008000
17725 ca 16612 TPSG CA4 17725 -0.1028 12.010000
17726 ha 16612 TPSG HA4 17726 0.1262 1.008000
17727 ca 16612 TPSG CA3 17727 -0.1548 12.010000
17728 ha 16612 TPSG HA3 17728 0.1282 1.008000
17729 OA 16612 TPSG O1 17729 -0.675000 15.99940
17730 HG 16612 TPSG H6 17730 0.400000 2.01600
17731 ha 16613 TPSG HA2 17731 0.1332 1.008000
17732 ca 16613 TPSG CA2 17732 -0.0753 12.010000
17733 ca 16613 TPSG CA1 17733 -0.361 12.010000
17734 si 16613 TPSG Si 17734 1.1 28.085000
17735 ca 16613 TPSG CA6 17735 -0.0753 12.010000
17736 ha 16613 TPSG HH6 17736 0.1332 1.008000
17737 ca 16613 TPSG CA5 17737 -0.1548 12.010000
17738 ha 16613 TPSG HA5 17738 0.1282 1.008000
17739 ca 16613 TPSG CA4 17739 -0.1028 12.010000
17740 ha 16613 TPSG HA4 17740 0.1262 1.008000
17741 ca 16613 TPSG CA3 17741 -0.1548 12.010000
17742 ha 16613 TPSG HA3 17742 0.1282 1.008000
17743 OA 16613 TPSG O1 17743 -0.675000 15.99940
17744 HG 16613 TPSG H6 17744 0.400000 2.01600
17745 ha 16614 TPSG HA2 17745 0.1332 1.008000
17746 ca 16614 TPSG CA2 17746 -0.0753 12.010000
17747 ca 16614 TPSG CA1 17747 -0.361 12.010000
17748 si 16614 TPSG Si 17748 1.1 28.085000
17749 ca 16614 TPSG CA6 17749 -0.0753 12.010000
17750 ha 16614 TPSG HH6 17750 0.1332 1.008000
17751 ca 16614 TPSG CA5 17751 -0.1548 12.010000
17752 ha 16614 TPSG HA5 17752 0.1282 1.008000
17753 ca 16614 TPSG CA4 17753 -0.1028 12.010000
17754 ha 16614 TPSG HA4 17754 0.1262 1.008000
17755 ca 16614 TPSG CA3 17755 -0.1548 12.010000
17756 ha 16614 TPSG HA3 17756 0.1282 1.008000
17757 OA 16614 TPSG O1 17757 -0.675000 15.99940
17758 HG 16614 TPSG H6 17758 0.400000 2.01600
17759 ha 16615 TPSG HA2 17759 0.1332 1.008000
17760 ca 16615 TPSG CA2 17760 -0.0753 12.010000
17761 ca 16615 TPSG CA1 17761 -0.361 12.010000
17762 si 16615 TPSG Si 17762 1.1 28.085000
17763 ca 16615 TPSG CA6 17763 -0.0753 12.010000
17764 ha 16615 TPSG HH6 17764 0.1332 1.008000
17765 ca 16615 TPSG CA5 17765 -0.1548 12.010000
17766 ha 16615 TPSG HA5 17766 0.1282 1.008000
17767 ca 16615 TPSG CA4 17767 -0.1028 12.010000
17768 ha 16615 TPSG HA4 17768 0.1262 1.008000
17769 ca 16615 TPSG CA3 17769 -0.1548 12.010000
17770 ha 16615 TPSG HA3 17770 0.1282 1.008000
17771 OA 16615 TPSG O1 17771 -0.675000 15.99940
17772 HG 16615 TPSG H6 17772 0.400000 2.01600
17773 ha 16616 TPSG HA2 17773 0.1332 1.008000
17774 ca 16616 TPSG CA2 17774 -0.0753 12.010000
17775 ca 16616 TPSG CA1 17775 -0.361 12.010000
17776 si 16616 TPSG Si 17776 1.1 28.085000
17777 ca 16616 TPSG CA6 17777 -0.0753 12.010000
17778 ha 16616 TPSG HH6 17778 0.1332 1.008000
17779 ca 16616 TPSG CA5 17779 -0.1548 12.010000
17780 ha 16616 TPSG HA5 17780 0.1282 1.008000
17781 ca 16616 TPSG CA4 17781 -0.1028 12.010000
17782 ha 16616 TPSG HA4 17782 0.1262 1.008000
17783 ca 16616 TPSG CA3 17783 -0.1548 12.010000
17784 ha 16616 TPSG HA3 17784 0.1282 1.008000
17785 OA 16616 TPSG O1 17785 -0.675000 15.99940
17786 HG 16616 TPSG H6 17786 0.400000 2.01600
17787 ha 16617 TPSG HA2 17787 0.1332 1.008000
17788 ca 16617 TPSG CA2 17788 -0.0753 12.010000
17789 ca 16617 TPSG CA1 17789 -0.361 12.010000
17790 si 16617 TPSG Si 17790 1.1 28.085000
17791 ca 16617 TPSG CA6 17791 -0.0753 12.010000
17792 ha 16617 TPSG HH6 17792 0.1332 1.008000
17793 ca 16617 TPSG CA5 17793 -0.1548 12.010000
17794 ha 16617 TPSG HA5 17794 0.1282 1.008000
17795 ca 16617 TPSG CA4 17795 -0.1028 12.010000
17796 ha 16617 TPSG HA4 17796 0.1262 1.008000
17797 ca 16617 TPSG CA3 17797 -0.1548 12.010000
17798 ha 16617 TPSG HA3 17798 0.1282 1.008000
17799 OA 16617 TPSG O1 17799 -0.675000 15.99940
17800 HG 16617 TPSG H6 17800 0.400000 2.01600
17801 ha 16618 TPSG HA2 17801 0.1332 1.008000
17802 ca 16618 TPSG CA2 17802 -0.0753 12.010000
17803 ca 16618 TPSG CA1 17803 -0.361 12.010000
17804 si 16618 TPSG Si 17804 1.1 28.085000
17805 ca 16618 TPSG CA6 17805 -0.0753 12.010000
17806 ha 16618 TPSG HH6 17806 0.1332 1.008000
17807 ca 16618 TPSG CA5 17807 -0.1548 12.010000
17808 ha 16618 TPSG HA5 17808 0.1282 1.008000
17809 ca 16618 TPSG CA4 17809 -0.1028 12.010000
17810 ha 16618 TPSG HA4 17810 0.1262 1.008000
17811 ca 16618 TPSG CA3 17811 -0.1548 12.010000
17812 ha 16618 TPSG HA3 17812 0.1282 1.008000
17813 OA 16618 TPSG O1 17813 -0.675000 15.99940
17814 HG 16618 TPSG H6 17814 0.400000 2.01600
17815 ha 16619 TPSG HA2 17815 0.1332 1.008000
17816 ca 16619 TPSG CA2 17816 -0.0753 12.010000
17817 ca 16619 TPSG CA1 17817 -0.361 12.010000
17818 si 16619 TPSG Si 17818 1.1 28.085000
17819 ca 16619 TPSG CA6 17819 -0.0753 12.010000
17820 ha 16619 TPSG HH6 17820 0.1332 1.008000
17821 ca 16619 TPSG CA5 17821 -0.1548 12.010000
17822 ha 16619 TPSG HA5 17822 0.1282 1.008000
17823 ca 16619 TPSG CA4 17823 -0.1028 12.010000
17824 ha 16619 TPSG HA4 17824 0.1262 1.008000
17825 ca 16619 TPSG CA3 17825 -0.1548 12.010000
17826 ha 16619 TPSG HA3 17826 0.1282 1.008000
17827 OA 16619 TPSG O1 17827 -0.675000 15.99940
17828 HG 16619 TPSG H6 17828 0.400000 2.01600
17829 ha 16620 TPSG HA2 17829 0.1332 1.008000
17830 ca 16620 TPSG CA2 17830 -0.0753 12.010000
17831 ca 16620 TPSG CA1 17831 -0.361 12.010000
17832 si 16620 TPSG Si 17832 1.1 28.085000
17833 ca 16620 TPSG CA6 17833 -0.0753 12.010000
17834 ha 16620 TPSG HH6 17834 0.1332 1.008000
17835 ca 16620 TPSG CA5 17835 -0.1548 12.010000
17836 ha 16620 TPSG HA5 17836 0.1282 1.008000
17837 ca 16620 TPSG CA4 17837 -0.1028 12.010000
17838 ha 16620 TPSG HA4 17838 0.1262 1.008000
17839 ca 16620 TPSG CA3 17839 -0.1548 12.010000
17840 ha 16620 TPSG HA3 17840 0.1282 1.008000
17841 OA 16620 TPSG O1 17841 -0.675000 15.99940
17842 HG 16620 TPSG H6 17842 0.400000 2.01600
17843 ha 16621 TPSG HA2 17843 0.1332 1.008000
17844 ca 16621 TPSG CA2 17844 -0.0753 12.010000
17845 ca 16621 TPSG CA1 17845 -0.361 12.010000
17846 si 16621 TPSG Si 17846 1.1 28.085000
17847 ca 16621 TPSG CA6 17847 -0.0753 12.010000
17848 ha 16621 TPSG HH6 17848 0.1332 1.008000
17849 ca 16621 TPSG CA5 17849 -0.1548 12.010000
17850 ha 16621 TPSG HA5 17850 0.1282 1.008000
17851 ca 16621 TPSG CA4 17851 -0.1028 12.010000
17852 ha 16621 TPSG HA4 17852 0.1262 1.008000
17853 ca 16621 TPSG CA3 17853 -0.1548 12.010000
17854 ha 16621 TPSG HA3 17854 0.1282 1.008000
17855 OA 16621 TPSG O1 17855 -0.675000 15.99940
17856 HG 16621 TPSG H6 17856 0.400000 2.01600
17857 ha 16622 TPSG HA2 17857 0.1332 1.008000
17858 ca 16622 TPSG CA2 17858 -0.0753 12.010000
17859 ca 16622 TPSG CA1 17859 -0.361 12.010000
17860 si 16622 TPSG Si 17860 1.1 28.085000
17861 ca 16622 TPSG CA6 17861 -0.0753 12.010000
17862 ha 16622 TPSG HH6 17862 0.1332 1.008000
17863 ca 16622 TPSG CA5 17863 -0.1548 12.010000
17864 ha 16622 TPSG HA5 17864 0.1282 1.008000
17865 ca 16622 TPSG CA4 17865 -0.1028 12.010000
17866 ha 16622 TPSG HA4 17866 0.1262 1.008000
17867 ca 16622 TPSG CA3 17867 -0.1548 12.010000
17868 ha 16622 TPSG HA3 17868 0.1282 1.008000
17869 OA 16622 TPSG O1 17869 -0.675000 15.99940
17870 HG 16622 TPSG H6 17870 0.400000 2.01600
17871 ha 16623 TPSG HA2 17871 0.1332 1.008000
17872 ca 16623 TPSG CA2 17872 -0.0753 12.010000
17873 ca 16623 TPSG CA1 17873 -0.361 12.010000
17874 si 16623 TPSG Si 17874 1.1 28.085000
17875 ca 16623 TPSG CA6 17875 -0.0753 12.010000
17876 ha 16623 TPSG HH6 17876 0.1332 1.008000
17877 ca 16623 TPSG CA5 17877 -0.1548 12.010000
17878 ha 16623 TPSG HA5 17878 0.1282 1.008000
17879 ca 16623 TPSG CA4 17879 -0.1028 12.010000
17880 ha 16623 TPSG HA4 17880 0.1262 1.008000
17881 ca 16623 TPSG CA3 17881 -0.1548 12.010000
17882 ha 16623 TPSG HA3 17882 0.1282 1.008000
17883 OA 16623 TPSG O1 17883 -0.675000 15.99940
17884 HG 16623 TPSG H6 17884 0.400000 2.01600
17885 ha 16624 TPSG HA2 17885 0.1332 1.008000
17886 ca 16624 TPSG CA2 17886 -0.0753 12.010000
17887 ca 16624 TPSG CA1 17887 -0.361 12.010000
17888 si 16624 TPSG Si 17888 1.1 28.085000
17889 ca 16624 TPSG CA6 17889 -0.0753 12.010000
17890 ha 16624 TPSG HH6 17890 0.1332 1.008000
17891 ca 16624 TPSG CA5 17891 -0.1548 12.010000
17892 ha 16624 TPSG HA5 17892 0.1282 1.008000
17893 ca 16624 TPSG CA4 17893 -0.1028 12.010000
17894 ha 16624 TPSG HA4 17894 0.1262 1.008000
17895 ca 16624 TPSG CA3 17895 -0.1548 12.010000
17896 ha 16624 TPSG HA3 17896 0.1282 1.008000
17897 OA 16624 TPSG O1 17897 -0.675000 15.99940
17898 HG 16624 TPSG H6 17898 0.400000 2.01600
17899 ha 16625 TPSG HA2 17899 0.1332 1.008000
17900 ca 16625 TPSG CA2 17900 -0.0753 12.010000
17901 ca 16625 TPSG CA1 17901 -0.361 12.010000
17902 si 16625 TPSG Si 17902 1.1 28.085000
17903 ca 16625 TPSG CA6 17903 -0.0753 12.010000
17904 ha 16625 TPSG HH6 17904 0.1332 1.008000
17905 ca 16625 TPSG CA5 17905 -0.1548 12.010000
17906 ha 16625 TPSG HA5 17906 0.1282 1.008000
17907 ca 16625 TPSG CA4 17907 -0.1028 12.010000
17908 ha 16625 TPSG HA4 17908 0.1262 1.008000
17909 ca 16625 TPSG CA3 17909 -0.1548 12.010000
17910 ha 16625 TPSG HA3 17910 0.1282 1.008000
17911 OA 16625 TPSG O1 17911 -0.675000 15.99940
17912 HG 16625 TPSG H6 17912 0.400000 2.01600
17913 ha 16626 TPSG HA2 17913 0.1332 1.008000
17914 ca 16626 TPSG CA2 17914 -0.0753 12.010000
17915 ca 16626 TPSG CA1 17915 -0.361 12.010000
17916 si 16626 TPSG Si 17916 1.1 28.085000
17917 ca 16626 TPSG CA6 17917 -0.0753 12.010000
17918 ha 16626 TPSG HH6 17918 0.1332 1.008000
17919 ca 16626 TPSG CA5 17919 -0.1548 12.010000
17920 ha 16626 TPSG HA5 17920 0.1282 1.008000
17921 ca 16626 TPSG CA4 17921 -0.1028 12.010000
17922 ha 16626 TPSG HA4 17922 0.1262 1.008000
17923 ca 16626 TPSG CA3 17923 -0.1548 12.010000
17924 ha 16626 TPSG HA3 17924 0.1282 1.008000
17925 OA 16626 TPSG O1 17925 -0.675000 15.99940
17926 HG 16626 TPSG H6 17926 0.400000 2.01600
17927 ha 16627 TPSG HA2 17927 0.1332 1.008000
17928 ca 16627 TPSG CA2 17928 -0.0753 12.010000
17929 ca 16627 TPSG CA1 17929 -0.361 12.010000
17930 si 16627 TPSG Si 17930 1.1 28.085000
17931 ca 16627 TPSG CA6 17931 -0.0753 12.010000
17932 ha 16627 TPSG HH6 17932 0.1332 1.008000
17933 ca 16627 TPSG CA5 17933 -0.1548 12.010000
17934 ha 16627 TPSG HA5 17934 0.1282 1.008000
17935 ca 16627 TPSG CA4 17935 -0.1028 12.010000
17936 ha 16627 TPSG HA4 17936 0.1262 1.008000
17937 ca 16627 TPSG CA3 17937 -0.1548 12.010000
17938 ha 16627 TPSG HA3 17938 0.1282 1.008000
17939 OA 16627 TPSG O1 17939 -0.675000 15.99940
17940 HG 16627 TPSG H6 17940 0.400000 2.01600
17941 ha 16628 TPSG HA2 17941 0.1332 1.008000
17942 ca 16628 TPSG CA2 17942 -0.0753 12.010000
17943 ca 16628 TPSG CA1 17943 -0.361 12.010000
17944 si 16628 TPSG Si 17944 1.1 28.085000
17945 ca 16628 TPSG CA6 17945 -0.0753 12.010000
17946 ha 16628 TPSG HH6 17946 0.1332 1.008000
17947 ca 16628 TPSG CA5 17947 -0.1548 12.010000
17948 ha 16628 TPSG HA5 17948 0.1282 1.008000
17949 ca 16628 TPSG CA4 17949 -0.1028 12.010000
17950 ha 16628 TPSG HA4 17950 0.1262 1.008000
17951 ca 16628 TPSG CA3 17951 -0.1548 12.010000
17952 ha 16628 TPSG HA3 17952 0.1282 1.008000
17953 OA 16628 TPSG O1 17953 -0.675000 15.99940
17954 HG 16628 TPSG H6 17954 0.400000 2.01600
17955 ha 16629 TPSG HA2 17955 0.1332 1.008000
17956 ca 16629 TPSG CA2 17956 -0.0753 12.010000
17957 ca 16629 TPSG CA1 17957 -0.361 12.010000
17958 si 16629 TPSG Si 17958 1.1 28.085000
17959 ca 16629 TPSG CA6 17959 -0.0753 12.010000
17960 ha 16629 TPSG HH6 17960 0.1332 1.008000
17961 ca 16629 TPSG CA5 17961 -0.1548 12.010000
17962 ha 16629 TPSG HA5 17962 0.1282 1.008000
17963 ca 16629 TPSG CA4 17963 -0.1028 12.010000
17964 ha 16629 TPSG HA4 17964 0.1262 1.008000
17965 ca 16629 TPSG CA3 17965 -0.1548 12.010000
17966 ha 16629 TPSG HA3 17966 0.1282 1.008000
17967 OA 16629 TPSG O1 17967 -0.675000 15.99940
17968 HG 16629 TPSG H6 17968 0.400000 2.01600
17969 ha 16630 TPSG HA2 17969 0.1332 1.008000
17970 ca 16630 TPSG CA2 17970 -0.0753 12.010000
17971 ca 16630 TPSG CA1 17971 -0.361 12.010000
17972 si 16630 TPSG Si 17972 1.1 28.085000
17973 ca 16630 TPSG CA6 17973 -0.0753 12.010000
17974 ha 16630 TPSG HH6 17974 0.1332 1.008000
17975 ca 16630 TPSG CA5 17975 -0.1548 12.010000
17976 ha 16630 TPSG HA5 17976 0.1282 1.008000
17977 ca 16630 TPSG CA4 17977 -0.1028 12.010000
17978 ha 16630 TPSG HA4 17978 0.1262 1.008000
17979 ca 16630 TPSG CA3 17979 -0.1548 12.010000
17980 ha 16630 TPSG HA3 17980 0.1282 1.008000
17981 OA 16630 TPSG O1 17981 -0.675000 15.99940
17982 HG 16630 TPSG H6 17982 0.400000 2.01600
17983 ha 16631 TPSG HA2 17983 0.1332 1.008000
17984 ca 16631 TPSG CA2 17984 -0.0753 12.010000
17985 ca 16631 TPSG CA1 17985 -0.361 12.010000
17986 si 16631 TPSG Si 17986 1.1 28.085000
17987 ca 16631 TPSG CA6 17987 -0.0753 12.010000
17988 ha 16631 TPSG HH6 17988 0.1332 1.008000
17989 ca 16631 TPSG CA5 17989 -0.1548 12.010000
17990 ha 16631 TPSG HA5 17990 0.1282 1.008000
17991 ca 16631 TPSG CA4 17991 -0.1028 12.010000
17992 ha 16631 TPSG HA4 17992 0.1262 1.008000
17993 ca 16631 TPSG CA3 17993 -0.1548 12.010000
17994 ha 16631 TPSG HA3 17994 0.1282 1.008000
17995 OA 16631 TPSG O1 17995 -0.675000 15.99940
17996 HG 16631 TPSG H6 17996 0.400000 2.01600
17997 ha 16632 TPSG HA2 17997 0.1332 1.008000
17998 ca 16632 TPSG CA2 17998 -0.0753 12.010000
17999 ca 16632 TPSG CA1 17999 -0.361 12.010000
18000 si 16632 TPSG Si 18000 1.1 28.085000
18001 ca 16632 TPSG CA6 18001 -0.0753 12.010000
18002 ha 16632 TPSG HH6 18002 0.1332 1.008000
18003 ca 16632 TPSG CA5 18003 -0.1548 12.010000
18004 ha 16632 TPSG HA5 18004 0.1282 1.008000
18005 ca 16632 TPSG CA4 18005 -0.1028 12.010000
18006 ha 16632 TPSG HA4 18006 0.1262 1.008000
18007 ca 16632 TPSG CA3 18007 -0.1548 12.010000
18008 ha 16632 TPSG HA3 18008 0.1282 1.008000
18009 OA 16632 TPSG O1 18009 -0.675000 15.99940
18010 HG 16632 TPSG H6 18010 0.400000 2.01600
18011 ha 16633 TPSG HA2 18011 0.1332 1.008000
18012 ca 16633 TPSG CA2 18012 -0.0753 12.010000
18013 ca 16633 TPSG CA1 18013 -0.361 12.010000
18014 si 16633 TPSG Si 18014 1.1 28.085000
18015 ca 16633 TPSG CA6 18015 -0.0753 12.010000
18016 ha 16633 TPSG HH6 18016 0.1332 1.008000
18017 ca 16633 TPSG CA5 18017 -0.1548 12.010000
18018 ha 16633 TPSG HA5 18018 0.1282 1.008000
18019 ca 16633 TPSG CA4 18019 -0.1028 12.010000
18020 ha 16633 TPSG HA4 18020 0.1262 1.008000
18021 ca 16633 TPSG CA3 18021 -0.1548 12.010000
18022 ha 16633 TPSG HA3 18022 0.1282 1.008000
18023 OA 16633 TPSG O1 18023 -0.675000 15.99940
18024 HG 16633 TPSG H6 18024 0.400000 2.01600
18025 ha 16634 TPSG HA2 18025 0.1332 1.008000
18026 ca 16634 TPSG CA2 18026 -0.0753 12.010000
18027 ca 16634 TPSG CA1 18027 -0.361 12.010000
18028 si 16634 TPSG Si 18028 1.1 28.085000
18029 ca 16634 TPSG CA6 18029 -0.0753 12.010000
18030 ha 16634 TPSG HH6 18030 0.1332 1.008000
18031 ca 16634 TPSG CA5 18031 -0.1548 12.010000
18032 ha 16634 TPSG HA5 18032 0.1282 1.008000
18033 ca 16634 TPSG CA4 18033 -0.1028 12.010000
18034 ha 16634 TPSG HA4 18034 0.1262 1.008000
18035 ca 16634 TPSG CA3 18035 -0.1548 12.010000
18036 ha 16634 TPSG HA3 18036 0.1282 1.008000
18037 OA 16634 TPSG O1 18037 -0.675000 15.99940
18038 HG 16634 TPSG H6 18038 0.400000 2.01600
18039 ha 16635 TPSG HA2 18039 0.1332 1.008000
18040 ca 16635 TPSG CA2 18040 -0.0753 12.010000
18041 ca 16635 TPSG CA1 18041 -0.361 12.010000
18042 si 16635 TPSG Si 18042 1.1 28.085000
18043 ca 16635 TPSG CA6 18043 -0.0753 12.010000
18044 ha 16635 TPSG HH6 18044 0.1332 1.008000
18045 ca 16635 TPSG CA5 18045 -0.1548 12.010000
18046 ha 16635 TPSG HA5 18046 0.1282 1.008000
18047 ca 16635 TPSG CA4 18047 -0.1028 12.010000
18048 ha 16635 TPSG HA4 18048 0.1262 1.008000
18049 ca 16635 TPSG CA3 18049 -0.1548 12.010000
18050 ha 16635 TPSG HA3 18050 0.1282 1.008000
18051 OA 16635 TPSG O1 18051 -0.675000 15.99940
18052 HG 16635 TPSG H6 18052 0.400000 2.01600
18053 ha 16636 TPSG HA2 18053 0.1332 1.008000
18054 ca 16636 TPSG CA2 18054 -0.0753 12.010000
18055 ca 16636 TPSG CA1 18055 -0.361 12.010000
18056 si 16636 TPSG Si 18056 1.1 28.085000
18057 ca 16636 TPSG CA6 18057 -0.0753 12.010000
18058 ha 16636 TPSG HH6 18058 0.1332 1.008000
18059 ca 16636 TPSG CA5 18059 -0.1548 12.010000
18060 ha 16636 TPSG HA5 18060 0.1282 1.008000
18061 ca 16636 TPSG CA4 18061 -0.1028 12.010000
18062 ha 16636 TPSG HA4 18062 0.1262 1.008000
18063 ca 16636 TPSG CA3 18063 -0.1548 12.010000
18064 ha 16636 TPSG HA3 18064 0.1282 1.008000
18065 OA 16636 TPSG O1 18065 -0.675000 15.99940
18066 HG 16636 TPSG H6 18066 0.400000 2.01600
18067 ha 16637 TPSG HA2 18067 0.1332 1.008000
18068 ca 16637 TPSG CA2 18068 -0.0753 12.010000
18069 ca 16637 TPSG CA1 18069 -0.361 12.010000
18070 si 16637 TPSG Si 18070 1.1 28.085000
18071 ca 16637 TPSG CA6 18071 -0.0753 12.010000
18072 ha 16637 TPSG HH6 18072 0.1332 1.008000
18073 ca 16637 TPSG CA5 18073 -0.1548 12.010000
18074 ha 16637 TPSG HA5 18074 0.1282 1.008000
18075 ca 16637 TPSG CA4 18075 -0.1028 12.010000
18076 ha 16637 TPSG HA4 18076 0.1262 1.008000
18077 ca 16637 TPSG CA3 18077 -0.1548 12.010000
18078 ha 16637 TPSG HA3 18078 0.1282 1.008000
18079 OA 16637 TPSG O1 18079 -0.675000 15.99940
18080 HG 16637 TPSG H6 18080 0.400000 2.01600
18081 ha 16638 TPSG HA2 18081 0.1332 1.008000
18082 ca 16638 TPSG CA2 18082 -0.0753 12.010000
18083 ca 16638 TPSG CA1 18083 -0.361 12.010000
18084 si 16638 TPSG Si 18084 1.1 28.085000
18085 ca 16638 TPSG CA6 18085 -0.0753 12.010000
18086 ha 16638 TPSG HH6 18086 0.1332 1.008000
18087 ca 16638 TPSG CA5 18087 -0.1548 12.010000
18088 ha 16638 TPSG HA5 18088 0.1282 1.008000
18089 ca 16638 TPSG CA4 18089 -0.1028 12.010000
18090 ha 16638 TPSG HA4 18090 0.1262 1.008000
18091 ca 16638 TPSG CA3 18091 -0.1548 12.010000
18092 ha 16638 TPSG HA3 18092 0.1282 1.008000
18093 OA 16638 TPSG O1 18093 -0.675000 15.99940
18094 HG 16638 TPSG H6 18094 0.400000 2.01600
18095 ha 16639 TPSG HA2 18095 0.1332 1.008000
18096 ca 16639 TPSG CA2 18096 -0.0753 12.010000
18097 ca 16639 TPSG CA1 18097 -0.361 12.010000
18098 si 16639 TPSG Si 18098 1.1 28.085000
18099 ca 16639 TPSG CA6 18099 -0.0753 12.010000
18100 ha 16639 TPSG HH6 18100 0.1332 1.008000
18101 ca 16639 TPSG CA5 18101 -0.1548 12.010000
18102 ha 16639 TPSG HA5 18102 0.1282 1.008000
18103 ca 16639 TPSG CA4 18103 -0.1028 12.010000
18104 ha 16639 TPSG HA4 18104 0.1262 1.008000
18105 ca 16639 TPSG CA3 18105 -0.1548 12.010000
18106 ha 16639 TPSG HA3 18106 0.1282 1.008000
18107 OA 16639 TPSG O1 18107 -0.675000 15.99940
18108 HG 16639 TPSG H6 18108 0.400000 2.01600
18109 ha 16640 TPSG HA2 18109 0.1332 1.008000
18110 ca 16640 TPSG CA2 18110 -0.0753 12.010000
18111 ca 16640 TPSG CA1 18111 -0.361 12.010000
18112 si 16640 TPSG Si 18112 1.1 28.085000
18113 ca 16640 TPSG CA6 18113 -0.0753 12.010000
18114 ha 16640 TPSG HH6 18114 0.1332 1.008000
18115 ca 16640 TPSG CA5 18115 -0.1548 12.010000
18116 ha 16640 TPSG HA5 18116 0.1282 1.008000
18117 ca 16640 TPSG CA4 18117 -0.1028 12.010000
18118 ha 16640 TPSG HA4 18118 0.1262 1.008000
18119 ca 16640 TPSG CA3 18119 -0.1548 12.010000
18120 ha 16640 TPSG HA3 18120 0.1282 1.008000
18121 OA 16640 TPSG O1 18121 -0.675000 15.99940
18122 HG 16640 TPSG H6 18122 0.400000 2.01600
18123 ha 16641 TPSG HA2 18123 0.1332 1.008000
18124 ca 16641 TPSG CA2 18124 -0.0753 12.010000
18125 ca 16641 TPSG CA1 18125 -0.361 12.010000
18126 si 16641 TPSG Si 18126 1.1 28.085000
18127 ca 16641 TPSG CA6 18127 -0.0753 12.010000
18128 ha 16641 TPSG HH6 18128 0.1332 1.008000
18129 ca 16641 TPSG CA5 18129 -0.1548 12.010000
18130 ha 16641 TPSG HA5 18130 0.1282 1.008000
18131 ca 16641 TPSG CA4 18131 -0.1028 12.010000
18132 ha 16641 TPSG HA4 18132 0.1262 1.008000
18133 ca 16641 TPSG CA3 18133 -0.1548 12.010000
18134 ha 16641 TPSG HA3 18134 0.1282 1.008000
18135 OA 16641 TPSG O1 18135 -0.675000 15.99940
18136 HG 16641 TPSG H6 18136 0.400000 2.01600
18137 ha 16642 TPSG HA2 18137 0.1332 1.008000
18138 ca 16642 TPSG CA2 18138 -0.0753 12.010000
18139 ca 16642 TPSG CA1 18139 -0.361 12.010000
18140 si 16642 TPSG Si 18140 1.1 28.085000
18141 ca 16642 TPSG CA6 18141 -0.0753 12.010000
18142 ha 16642 TPSG HH6 18142 0.1332 1.008000
18143 ca 16642 TPSG CA5 18143 -0.1548 12.010000
18144 ha 16642 TPSG HA5 18144 0.1282 1.008000
18145 ca 16642 TPSG CA4 18145 -0.1028 12.010000
18146 ha 16642 TPSG HA4 18146 0.1262 1.008000
18147 ca 16642 TPSG CA3 18147 -0.1548 12.010000
18148 ha 16642 TPSG HA3 18148 0.1282 1.008000
18149 OA 16642 TPSG O1 18149 -0.675000 15.99940
18150 HG 16642 TPSG H6 18150 0.400000 2.01600
18151 ha 16643 TPSG HA2 18151 0.1332 1.008000
18152 ca 16643 TPSG CA2 18152 -0.0753 12.010000
18153 ca 16643 TPSG CA1 18153 -0.361 12.010000
18154 si 16643 TPSG Si 18154 1.1 28.085000
18155 ca 16643 TPSG CA6 18155 -0.0753 12.010000
18156 ha 16643 TPSG HH6 18156 0.1332 1.008000
18157 ca 16643 TPSG CA5 18157 -0.1548 12.010000
18158 ha 16643 TPSG HA5 18158 0.1282 1.008000
18159 ca 16643 TPSG CA4 18159 -0.1028 12.010000
18160 ha 16643 TPSG HA4 18160 0.1262 1.008000
18161 ca 16643 TPSG CA3 18161 -0.1548 12.010000
18162 ha 16643 TPSG HA3 18162 0.1282 1.008000
18163 OA 16643 TPSG O1 18163 -0.675000 15.99940
18164 HG 16643 TPSG H6 18164 0.400000 2.01600
18165 ha 16644 TPSG HA2 18165 0.1332 1.008000
18166 ca 16644 TPSG CA2 18166 -0.0753 12.010000
18167 ca 16644 TPSG CA1 18167 -0.361 12.010000
18168 si 16644 TPSG Si 18168 1.1 28.085000
18169 ca 16644 TPSG CA6 18169 -0.0753 12.010000
18170 ha 16644 TPSG HH6 18170 0.1332 1.008000
18171 ca 16644 TPSG CA5 18171 -0.1548 12.010000
18172 ha 16644 TPSG HA5 18172 0.1282 1.008000
18173 ca 16644 TPSG CA4 18173 -0.1028 12.010000
18174 ha 16644 TPSG HA4 18174 0.1262 1.008000
18175 ca 16644 TPSG CA3 18175 -0.1548 12.010000
18176 ha 16644 TPSG HA3 18176 0.1282 1.008000
18177 OA 16644 TPSG O1 18177 -0.675000 15.99940
18178 HG 16644 TPSG H6 18178 0.400000 2.01600
18179 ha 16645 TPSG HA2 18179 0.1332 1.008000
18180 ca 16645 TPSG CA2 18180 -0.0753 12.010000
18181 ca 16645 TPSG CA1 18181 -0.361 12.010000
18182 si 16645 TPSG Si 18182 1.1 28.085000
18183 ca 16645 TPSG CA6 18183 -0.0753 12.010000
18184 ha 16645 TPSG HH6 18184 0.1332 1.008000
18185 ca 16645 TPSG CA5 18185 -0.1548 12.010000
18186 ha 16645 TPSG HA5 18186 0.1282 1.008000
18187 ca 16645 TPSG CA4 18187 -0.1028 12.010000
18188 ha 16645 TPSG HA4 18188 0.1262 1.008000
18189 ca 16645 TPSG CA3 18189 -0.1548 12.010000
18190 ha 16645 TPSG HA3 18190 0.1282 1.008000
18191 OA 16645 TPSG O1 18191 -0.675000 15.99940
18192 HG 16645 TPSG H6 18192 0.400000 2.01600
18193 ha 16646 TPSG HA2 18193 0.1332 1.008000
18194 ca 16646 TPSG CA2 18194 -0.0753 12.010000
18195 ca 16646 TPSG CA1 18195 -0.361 12.010000
18196 si 16646 TPSG Si 18196 1.1 28.085000
18197 ca 16646 TPSG CA6 18197 -0.0753 12.010000
18198 ha 16646 TPSG HH6 18198 0.1332 1.008000
18199 ca 16646 TPSG CA5 18199 -0.1548 12.010000
18200 ha 16646 TPSG HA5 18200 0.1282 1.008000
18201 ca 16646 TPSG CA4 18201 -0.1028 12.010000
18202 ha 16646 TPSG HA4 18202 0.1262 1.008000
18203 ca 16646 TPSG CA3 18203 -0.1548 12.010000
18204 ha 16646 TPSG HA3 18204 0.1282 1.008000
18205 OA 16646 TPSG O1 18205 -0.675000 15.99940
18206 HG 16646 TPSG H6 18206 0.400000 2.01600
18207 ha 16647 TPSG HA2 18207 0.1332 1.008000
18208 ca 16647 TPSG CA2 18208 -0.0753 12.010000
18209 ca 16647 TPSG CA1 18209 -0.361 12.010000
18210 si 16647 TPSG Si 18210 1.1 28.085000
18211 ca 16647 TPSG CA6 18211 -0.0753 12.010000
18212 ha 16647 TPSG HH6 18212 0.1332 1.008000
18213 ca 16647 TPSG CA5 18213 -0.1548 12.010000
18214 ha 16647 TPSG HA5 18214 0.1282 1.008000
18215 ca 16647 TPSG CA4 18215 -0.1028 12.010000
18216 ha 16647 TPSG HA4 18216 0.1262 1.008000
18217 ca 16647 TPSG CA3 18217 -0.1548 12.010000
18218 ha 16647 TPSG HA3 18218 0.1282 1.008000
18219 OA 16647 TPSG O1 18219 -0.675000 15.99940
18220 HG 16647 TPSG H6 18220 0.400000 2.01600
18221 ha 16648 TPSG HA2 18221 0.1332 1.008000
18222 ca 16648 TPSG CA2 18222 -0.0753 12.010000
18223 ca 16648 TPSG CA1 18223 -0.361 12.010000
18224 si 16648 TPSG Si 18224 1.1 28.085000
18225 ca 16648 TPSG CA6 18225 -0.0753 12.010000
18226 ha 16648 TPSG HH6 18226 0.1332 1.008000
18227 ca 16648 TPSG CA5 18227 -0.1548 12.010000
18228 ha 16648 TPSG HA5 18228 0.1282 1.008000
18229 ca 16648 TPSG CA4 18229 -0.1028 12.010000
18230 ha 16648 TPSG HA4 18230 0.1262 1.008000
18231 ca 16648 TPSG CA3 18231 -0.1548 12.010000
18232 ha 16648 TPSG HA3 18232 0.1282 1.008000
18233 OA 16648 TPSG O1 18233 -0.675000 15.99940
18234 HG 16648 TPSG H6 18234 0.400000 2.01600
18235 ha 16649 TPSG HA2 18235 0.1332 1.008000
18236 ca 16649 TPSG CA2 18236 -0.0753 12.010000
18237 ca 16649 TPSG CA1 18237 -0.361 12.010000
18238 si 16649 TPSG Si 18238 1.1 28.085000
18239 ca 16649 TPSG CA6 18239 -0.0753 12.010000
18240 ha 16649 TPSG HH6 18240 0.1332 1.008000
18241 ca 16649 TPSG CA5 18241 -0.1548 12.010000
18242 ha 16649 TPSG HA5 18242 0.1282 1.008000
18243 ca 16649 TPSG CA4 18243 -0.1028 12.010000
18244 ha 16649 TPSG HA4 18244 0.1262 1.008000
18245 ca 16649 TPSG CA3 18245 -0.1548 12.010000
18246 ha 16649 TPSG HA3 18246 0.1282 1.008000
18247 OA 16649 TPSG O1 18247 -0.675000 15.99940
18248 HG 16649 TPSG H6 18248 0.400000 2.01600
18249 ha 16650 TPSG HA2 18249 0.1332 1.008000
18250 ca 16650 TPSG CA2 18250 -0.0753 12.010000
18251 ca 16650 TPSG CA1 18251 -0.361 12.010000
18252 si 16650 TPSG Si 18252 1.1 28.085000
18253 ca 16650 TPSG CA6 18253 -0.0753 12.010000
18254 ha 16650 TPSG HH6 18254 0.1332 1.008000
18255 ca 16650 TPSG CA5 18255 -0.1548 12.010000
18256 ha 16650 TPSG HA5 18256 0.1282 1.008000
18257 ca 16650 TPSG CA4 18257 -0.1028 12.010000
18258 ha 16650 TPSG HA4 18258 0.1262 1.008000
18259 ca 16650 TPSG CA3 18259 -0.1548 12.010000
18260 ha 16650 TPSG HA3 18260 0.1282 1.008000
18261 OA 16650 TPSG O1 18261 -0.675000 15.99940
18262 HG 16650 TPSG H6 18262 0.400000 2.01600
18263 ha 16651 TPSG HA2 18263 0.1332 1.008000
18264 ca 16651 TPSG CA2 18264 -0.0753 12.010000
18265 ca 16651 TPSG CA1 18265 -0.361 12.010000
18266 si 16651 TPSG Si 18266 1.1 28.085000
18267 ca 16651 TPSG CA6 18267 -0.0753 12.010000
18268 ha 16651 TPSG HH6 18268 0.1332 1.008000
18269 ca 16651 TPSG CA5 18269 -0.1548 12.010000
18270 ha 16651 TPSG HA5 18270 0.1282 1.008000
18271 ca 16651 TPSG CA4 18271 -0.1028 12.010000
18272 ha 16651 TPSG HA4 18272 0.1262 1.008000
18273 ca 16651 TPSG CA3 18273 -0.1548 12.010000
18274 ha 16651 TPSG HA3 18274 0.1282 1.008000
18275 OA 16651 TPSG O1 18275 -0.675000 15.99940
18276 HG 16651 TPSG H6 18276 0.400000 2.01600
18277 ha 16652 TPSG HA2 18277 0.1332 1.008000
18278 ca 16652 TPSG CA2 18278 -0.0753 12.010000
18279 ca 16652 TPSG CA1 18279 -0.361 12.010000
18280 si 16652 TPSG Si 18280 1.1 28.085000
18281 ca 16652 TPSG CA6 18281 -0.0753 12.010000
18282 ha 16652 TPSG HH6 18282 0.1332 1.008000
18283 ca 16652 TPSG CA5 18283 -0.1548 12.010000
18284 ha 16652 TPSG HA5 18284 0.1282 1.008000
18285 ca 16652 TPSG CA4 18285 -0.1028 12.010000
18286 ha 16652 TPSG HA4 18286 0.1262 1.008000
18287 ca 16652 TPSG CA3 18287 -0.1548 12.010000
18288 ha 16652 TPSG HA3 18288 0.1282 1.008000
18289 OA 16652 TPSG O1 18289 -0.675000 15.99940
18290 HG 16652 TPSG H6 18290 0.400000 2.01600
18291 ha 16653 TPSG HA2 18291 0.1332 1.008000
18292 ca 16653 TPSG CA2 18292 -0.0753 12.010000
18293 ca 16653 TPSG CA1 18293 -0.361 12.010000
18294 si 16653 TPSG Si 18294 1.1 28.085000
18295 ca 16653 TPSG CA6 18295 -0.0753 12.010000
18296 ha 16653 TPSG HH6 18296 0.1332 1.008000
18297 ca 16653 TPSG CA5 18297 -0.1548 12.010000
18298 ha 16653 TPSG HA5 18298 0.1282 1.008000
18299 ca 16653 TPSG CA4 18299 -0.1028 12.010000
18300 ha 16653 TPSG HA4 18300 0.1262 1.008000
18301 ca 16653 TPSG CA3 18301 -0.1548 12.010000
18302 ha 16653 TPSG HA3 18302 0.1282 1.008000
18303 OA 16653 TPSG O1 18303 -0.675000 15.99940
18304 HG 16653 TPSG H6 18304 0.400000 2.01600
18305 ha 16654 TPSG HA2 18305 0.1332 1.008000
18306 ca 16654 TPSG CA2 18306 -0.0753 12.010000
18307 ca 16654 TPSG CA1 18307 -0.361 12.010000
18308 si 16654 TPSG Si 18308 1.1 28.085000
18309 ca 16654 TPSG CA6 18309 -0.0753 12.010000
18310 ha 16654 TPSG HH6 18310 0.1332 1.008000
18311 ca 16654 TPSG CA5 18311 -0.1548 12.010000
18312 ha 16654 TPSG HA5 18312 0.1282 1.008000
18313 ca 16654 TPSG CA4 18313 -0.1028 12.010000
18314 ha 16654 TPSG HA4 18314 0.1262 1.008000
18315 ca 16654 TPSG CA3 18315 -0.1548 12.010000
18316 ha 16654 TPSG HA3 18316 0.1282 1.008000
18317 OA 16654 TPSG O1 18317 -0.675000 15.99940
18318 HG 16654 TPSG H6 18318 0.400000 2.01600
18319 ha 16655 TPSG HA2 18319 0.1332 1.008000
18320 ca 16655 TPSG CA2 18320 -0.0753 12.010000
18321 ca 16655 TPSG CA1 18321 -0.361 12.010000
18322 si 16655 TPSG Si 18322 1.1 28.085000
18323 ca 16655 TPSG CA6 18323 -0.0753 12.010000
18324 ha 16655 TPSG HH6 18324 0.1332 1.008000
18325 ca 16655 TPSG CA5 18325 -0.1548 12.010000
18326 ha 16655 TPSG HA5 18326 0.1282 1.008000
18327 ca 16655 TPSG CA4 18327 -0.1028 12.010000
18328 ha 16655 TPSG HA4 18328 0.1262 1.008000
18329 ca 16655 TPSG CA3 18329 -0.1548 12.010000
18330 ha 16655 TPSG HA3 18330 0.1282 1.008000
18331 OA 16655 TPSG O1 18331 -0.675000 15.99940
18332 HG 16655 TPSG H6 18332 0.400000 2.01600
18333 ha 16656 TPSG HA2 18333 0.1332 1.008000
18334 ca 16656 TPSG CA2 18334 -0.0753 12.010000
18335 ca 16656 TPSG CA1 18335 -0.361 12.010000
18336 si 16656 TPSG Si 18336 1.1 28.085000
18337 ca 16656 TPSG CA6 18337 -0.0753 12.010000
18338 ha 16656 TPSG HH6 18338 0.1332 1.008000
18339 ca 16656 TPSG CA5 18339 -0.1548 12.010000
18340 ha 16656 TPSG HA5 18340 0.1282 1.008000
18341 ca 16656 TPSG CA4 18341 -0.1028 12.010000
18342 ha 16656 TPSG HA4 18342 0.1262 1.008000
18343 ca 16656 TPSG CA3 18343 -0.1548 12.010000
18344 ha 16656 TPSG HA3 18344 0.1282 1.008000
18345 OA 16656 TPSG O1 18345 -0.675000 15.99940
18346 HG 16656 TPSG H6 18346 0.400000 2.01600
18347 ha 16657 TPSG HA2 18347 0.1332 1.008000
18348 ca 16657 TPSG CA2 18348 -0.0753 12.010000
18349 ca 16657 TPSG CA1 18349 -0.361 12.010000
18350 si 16657 TPSG Si 18350 1.1 28.085000
18351 ca 16657 TPSG CA6 18351 -0.0753 12.010000
18352 ha 16657 TPSG HH6 18352 0.1332 1.008000
18353 ca 16657 TPSG CA5 18353 -0.1548 12.010000
18354 ha 16657 TPSG HA5 18354 0.1282 1.008000
18355 ca 16657 TPSG CA4 18355 -0.1028 12.010000
18356 ha 16657 TPSG HA4 18356 0.1262 1.008000
18357 ca 16657 TPSG CA3 18357 -0.1548 12.010000
18358 ha 16657 TPSG HA3 18358 0.1282 1.008000
18359 OA 16657 TPSG O1 18359 -0.675000 15.99940
18360 HG 16657 TPSG H6 18360 0.400000 2.01600
18361 ha 16658 TPSG HA2 18361 0.1332 1.008000
18362 ca 16658 TPSG CA2 18362 -0.0753 12.010000
18363 ca 16658 TPSG CA1 18363 -0.361 12.010000
18364 si 16658 TPSG Si 18364 1.1 28.085000
18365 ca 16658 TPSG CA6 18365 -0.0753 12.010000
18366 ha 16658 TPSG HH6 18366 0.1332 1.008000
18367 ca 16658 TPSG CA5 18367 -0.1548 12.010000
18368 ha 16658 TPSG HA5 18368 0.1282 1.008000
18369 ca 16658 TPSG CA4 18369 -0.1028 12.010000
18370 ha 16658 TPSG HA4 18370 0.1262 1.008000
18371 ca 16658 TPSG CA3 18371 -0.1548 12.010000
18372 ha 16658 TPSG HA3 18372 0.1282 1.008000
18373 OA 16658 TPSG O1 18373 -0.675000 15.99940
18374 HG 16658 TPSG H6 18374 0.400000 2.01600
18375 ha 16659 TPSG HA2 18375 0.1332 1.008000
18376 ca 16659 TPSG CA2 18376 -0.0753 12.010000
18377 ca 16659 TPSG CA1 18377 -0.361 12.010000
18378 si 16659 TPSG Si 18378 1.1 28.085000
18379 ca 16659 TPSG CA6 18379 -0.0753 12.010000
18380 ha 16659 TPSG HH6 18380 0.1332 1.008000
18381 ca 16659 TPSG CA5 18381 -0.1548 12.010000
18382 ha 16659 TPSG HA5 18382 0.1282 1.008000
18383 ca 16659 TPSG CA4 18383 -0.1028 12.010000
18384 ha 16659 TPSG HA4 18384 0.1262 1.008000
18385 ca 16659 TPSG CA3 18385 -0.1548 12.010000
18386 ha 16659 TPSG HA3 18386 0.1282 1.008000
18387 OA 16659 TPSG O1 18387 -0.675000 15.99940
18388 HG 16659 TPSG H6 18388 0.400000 2.01600
18389 ha 16660 TPSG HA2 18389 0.1332 1.008000
18390 ca 16660 TPSG CA2 18390 -0.0753 12.010000
18391 ca 16660 TPSG CA1 18391 -0.361 12.010000
18392 si 16660 TPSG Si 18392 1.1 28.085000
18393 ca 16660 TPSG CA6 18393 -0.0753 12.010000
18394 ha 16660 TPSG HH6 18394 0.1332 1.008000
18395 ca 16660 TPSG CA5 18395 -0.1548 12.010000
18396 ha 16660 TPSG HA5 18396 0.1282 1.008000
18397 ca 16660 TPSG CA4 18397 -0.1028 12.010000
18398 ha 16660 TPSG HA4 18398 0.1262 1.008000
18399 ca 16660 TPSG CA3 18399 -0.1548 12.010000
18400 ha 16660 TPSG HA3 18400 0.1282 1.008000
18401 OA 16660 TPSG O1 18401 -0.675000 15.99940
18402 HG 16660 TPSG H6 18402 0.400000 2.01600
18403 ha 16661 TPSG HA2 18403 0.1332 1.008000
18404 ca 16661 TPSG CA2 18404 -0.0753 12.010000
18405 ca 16661 TPSG CA1 18405 -0.361 12.010000
18406 si 16661 TPSG Si 18406 1.1 28.085000
18407 ca 16661 TPSG CA6 18407 -0.0753 12.010000
18408 ha 16661 TPSG HH6 18408 0.1332 1.008000
18409 ca 16661 TPSG CA5 18409 -0.1548 12.010000
18410 ha 16661 TPSG HA5 18410 0.1282 1.008000
18411 ca 16661 TPSG CA4 18411 -0.1028 12.010000
18412 ha 16661 TPSG HA4 18412 0.1262 1.008000
18413 ca 16661 TPSG CA3 18413 -0.1548 12.010000
18414 ha 16661 TPSG HA3 18414 0.1282 1.008000
18415 OA 16661 TPSG O1 18415 -0.675000 15.99940
18416 HG 16661 TPSG H6 18416 0.400000 2.01600
18417 ha 16662 TPSG HA2 18417 0.1332 1.008000
18418 ca 16662 TPSG CA2 18418 -0.0753 12.010000
18419 ca 16662 TPSG CA1 18419 -0.361 12.010000
18420 si 16662 TPSG Si 18420 1.1 28.085000
18421 ca 16662 TPSG CA6 18421 -0.0753 12.010000
18422 ha 16662 TPSG HH6 18422 0.1332 1.008000
18423 ca 16662 TPSG CA5 18423 -0.1548 12.010000
18424 ha 16662 TPSG HA5 18424 0.1282 1.008000
18425 ca 16662 TPSG CA4 18425 -0.1028 12.010000
18426 ha 16662 TPSG HA4 18426 0.1262 1.008000
18427 ca 16662 TPSG CA3 18427 -0.1548 12.010000
18428 ha 16662 TPSG HA3 18428 0.1282 1.008000
18429 OA 16662 TPSG O1 18429 -0.675000 15.99940
18430 HG 16662 TPSG H6 18430 0.400000 2.01600
18431 ha 16663 TPSG HA2 18431 0.1332 1.008000
18432 ca 16663 TPSG CA2 18432 -0.0753 12.010000
18433 ca 16663 TPSG CA1 18433 -0.361 12.010000
18434 si 16663 TPSG Si 18434 1.1 28.085000
18435 ca 16663 TPSG CA6 18435 -0.0753 12.010000
18436 ha 16663 TPSG HH6 18436 0.1332 1.008000
18437 ca 16663 TPSG CA5 18437 -0.1548 12.010000
18438 ha 16663 TPSG HA5 18438 0.1282 1.008000
18439 ca 16663 TPSG CA4 18439 -0.1028 12.010000
18440 ha 16663 TPSG HA4 18440 0.1262 1.008000
18441 ca 16663 TPSG CA3 18441 -0.1548 12.010000
18442 ha 16663 TPSG HA3 18442 0.1282 1.008000
18443 OA 16663 TPSG O1 18443 -0.675000 15.99940
18444 HG 16663 TPSG H6 18444 0.400000 2.01600
18445 ha 16664 TPSG HA2 18445 0.1332 1.008000
18446 ca 16664 TPSG CA2 18446 -0.0753 12.010000
18447 ca 16664 TPSG CA1 18447 -0.361 12.010000
18448 si 16664 TPSG Si 18448 1.1 28.085000
18449 ca 16664 TPSG CA6 18449 -0.0753 12.010000
18450 ha 16664 TPSG HH6 18450 0.1332 1.008000
18451 ca 16664 TPSG CA5 18451 -0.1548 12.010000
18452 ha 16664 TPSG HA5 18452 0.1282 1.008000
18453 ca 16664 TPSG CA4 18453 -0.1028 12.010000
18454 ha 16664 TPSG HA4 18454 0.1262 1.008000
18455 ca 16664 TPSG CA3 18455 -0.1548 12.010000
18456 ha 16664 TPSG HA3 18456 0.1282 1.008000
18457 OA 16664 TPSG O1 18457 -0.675000 15.99940
18458 HG 16664 TPSG H6 18458 0.400000 2.01600
18459 ha 16665 TPS HA2 18459 0.1332 1.008000
18460 ca 16665 TPS CA2 18460 -0.0753 12.010000
18461 ca 16665 TPS CA1 18461 -0.361 12.010000
18462 si 16665 TPS Si 18462 1.1 28.085000
18463 ca 16665 TPS CA6 18463 -0.0753 12.010000
18464 ha 16665 TPS HH6 18464 0.1332 1.008000
18465 ca 16665 TPS CA5 18465 -0.1548 12.010000
18466 ha 16665 TPS HA5 18466 0.1282 1.008000
18467 ca 16665 TPS CA4 18467 -0.1028 12.010000
18468 ha 16665 TPS HA4 18468 0.1262 1.008000
18469 ca 16665 TPS CA3 18469 -0.1548 12.010000
18470 ha 16665 TPS HA3 18470 0.1282 1.008000
18471 ha 16666 TPS HA2 18471 0.1332 1.008000
18472 ca 16666 TPS CA2 18472 -0.0753 12.010000
18473 ca 16666 TPS CA1 18473 -0.361 12.010000
18474 si 16666 TPS Si 18474 1.1 28.085000
18475 ca 16666 TPS CA6 18475 -0.0753 12.010000
18476 ha 16666 TPS HH6 18476 0.1332 1.008000
18477 ca 16666 TPS CA5 18477 -0.1548 12.010000
18478 ha 16666 TPS HA5 18478 0.1282 1.008000
18479 ca 16666 TPS CA4 18479 -0.1028 12.010000
18480 ha 16666 TPS HA4 18480 0.1262 1.008000
18481 ca 16666 TPS CA3 18481 -0.1548 12.010000
18482 ha 16666 TPS HA3 18482 0.1282 1.008000
18483 ha 16667 TPS HA2 18483 0.1332 1.008000
18484 ca 16667 TPS CA2 18484 -0.0753 12.010000
18485 ca 16667 TPS CA1 18485 -0.361 12.010000
18486 si 16667 TPS Si 18486 1.1 28.085000
18487 ca 16667 TPS CA6 18487 -0.0753 12.010000
18488 ha 16667 TPS HH6 18488 0.1332 1.008000
18489 ca 16667 TPS CA5 18489 -0.1548 12.010000
18490 ha 16667 TPS HA5 18490 0.1282 1.008000
18491 ca 16667 TPS CA4 18491 -0.1028 12.010000
18492 ha 16667 TPS HA4 18492 0.1262 1.008000
18493 ca 16667 TPS CA3 18493 -0.1548 12.010000
18494 ha 16667 TPS HA3 18494 0.1282 1.008000
18495 ha 16668 TPS HA2 18495 0.1332 1.008000
18496 ca 16668 TPS CA2 18496 -0.0753 12.010000
18497 ca 16668 TPS CA1 18497 -0.361 12.010000
18498 si 16668 TPS Si 18498 1.1 28.085000
18499 ca 16668 TPS CA6 18499 -0.0753 12.010000
18500 ha 16668 TPS HH6 18500 0.1332 1.008000
18501 ca 16668 TPS CA5 18501 -0.1548 12.010000
18502 ha 16668 TPS HA5 18502 0.1282 1.008000
18503 ca 16668 TPS CA4 18503 -0.1028 12.010000
18504 ha 16668 TPS HA4 18504 0.1262 1.008000
18505 ca 16668 TPS CA3 18505 -0.1548 12.010000
18506 ha 16668 TPS HA3 18506 0.1282 1.008000
18507 ha 16669 TPS HA2 18507 0.1332 1.008000
18508 ca 16669 TPS CA2 18508 -0.0753 12.010000
18509 ca 16669 TPS CA1 18509 -0.361 12.010000
18510 si 16669 TPS Si 18510 1.1 28.085000
18511 ca 16669 TPS CA6 18511 -0.0753 12.010000
18512 ha 16669 TPS HH6 18512 0.1332 1.008000
18513 ca 16669 TPS CA5 18513 -0.1548 12.010000
18514 ha 16669 TPS HA5 18514 0.1282 1.008000
18515 ca 16669 TPS CA4 18515 -0.1028 12.010000
18516 ha 16669 TPS HA4 18516 0.1262 1.008000
18517 ca 16669 TPS CA3 18517 -0.1548 12.010000
18518 ha 16669 TPS HA3 18518 0.1282 1.008000
18519 ha 16670 TPS HA2 18519 0.1332 1.008000
18520 ca 16670 TPS CA2 18520 -0.0753 12.010000
18521 ca 16670 TPS CA1 18521 -0.361 12.010000
18522 si 16670 TPS Si 18522 1.1 28.085000
18523 ca 16670 TPS CA6 18523 -0.0753 12.010000
18524 ha 16670 TPS HH6 18524 0.1332 1.008000
18525 ca 16670 TPS CA5 18525 -0.1548 12.010000
18526 ha 16670 TPS HA5 18526 0.1282 1.008000
18527 ca 16670 TPS CA4 18527 -0.1028 12.010000
18528 ha 16670 TPS HA4 18528 0.1262 1.008000
18529 ca 16670 TPS CA3 18529 -0.1548 12.010000
18530 ha 16670 TPS HA3 18530 0.1282 1.008000
18531 ha 16671 TPS HA2 18531 0.1332 1.008000
18532 ca 16671 TPS CA2 18532 -0.0753 12.010000
18533 ca 16671 TPS CA1 18533 -0.361 12.010000
18534 si 16671 TPS Si 18534 1.1 28.085000
18535 ca 16671 TPS CA6 18535 -0.0753 12.010000
18536 ha 16671 TPS HH6 18536 0.1332 1.008000
18537 ca 16671 TPS CA5 18537 -0.1548 12.010000
18538 ha 16671 TPS HA5 18538 0.1282 1.008000
18539 ca 16671 TPS CA4 18539 -0.1028 12.010000
18540 ha 16671 TPS HA4 18540 0.1262 1.008000
18541 ca 16671 TPS CA3 18541 -0.1548 12.010000
18542 ha 16671 TPS HA3 18542 0.1282 1.008000
18543 ha 16672 TPS HA2 18543 0.1332 1.008000
18544 ca 16672 TPS CA2 18544 -0.0753 12.010000
18545 ca 16672 TPS CA1 18545 -0.361 12.010000
18546 si 16672 TPS Si 18546 1.1 28.085000
18547 ca 16672 TPS CA6 18547 -0.0753 12.010000
18548 ha 16672 TPS HH6 18548 0.1332 1.008000
18549 ca 16672 TPS CA5 18549 -0.1548 12.010000
18550 ha 16672 TPS HA5 18550 0.1282 1.008000
18551 ca 16672 TPS CA4 18551 -0.1028 12.010000
18552 ha 16672 TPS HA4 18552 0.1262 1.008000
18553 ca 16672 TPS CA3 18553 -0.1548 12.010000
18554 ha 16672 TPS HA3 18554 0.1282 1.008000
18555 ha 16673 TPS HA2 18555 0.1332 1.008000
18556 ca 16673 TPS CA2 18556 -0.0753 12.010000
18557 ca 16673 TPS CA1 18557 -0.361 12.010000
18558 si 16673 TPS Si 18558 1.1 28.085000
18559 ca 16673 TPS CA6 18559 -0.0753 12.010000
18560 ha 16673 TPS HH6 18560 0.1332 1.008000
18561 ca 16673 TPS CA5 18561 -0.1548 12.010000
18562 ha 16673 TPS HA5 18562 0.1282 1.008000
18563 ca 16673 TPS CA4 18563 -0.1028 12.010000
18564 ha 16673 TPS HA4 18564 0.1262 1.008000
18565 ca 16673 TPS CA3 18565 -0.1548 12.010000
18566 ha 16673 TPS HA3 18566 0.1282 1.008000
18567 ha 16674 TPS HA2 18567 0.1332 1.008000
18568 ca 16674 TPS CA2 18568 -0.0753 12.010000
18569 ca 16674 TPS CA1 18569 -0.361 12.010000
18570 si 16674 TPS Si 18570 1.1 28.085000
18571 ca 16674 TPS CA6 18571 -0.0753 12.010000
18572 ha 16674 TPS HH6 18572 0.1332 1.008000
18573 ca 16674 TPS CA5 18573 -0.1548 12.010000
18574 ha 16674 TPS HA5 18574 0.1282 1.008000
18575 ca 16674 TPS CA4 18575 -0.1028 12.010000
18576 ha 16674 TPS HA4 18576 0.1262 1.008000
18577 ca 16674 TPS CA3 18577 -0.1548 12.010000
18578 ha 16674 TPS HA3 18578 0.1282 1.008000
18579 ha 16675 TPS HA2 18579 0.1332 1.008000
18580 ca 16675 TPS CA2 18580 -0.0753 12.010000
18581 ca 16675 TPS CA1 18581 -0.361 12.010000
18582 si 16675 TPS Si 18582 1.1 28.085000
18583 ca 16675 TPS CA6 18583 -0.0753 12.010000
18584 ha 16675 TPS HH6 18584 0.1332 1.008000
18585 ca 16675 TPS CA5 18585 -0.1548 12.010000
18586 ha 16675 TPS HA5 18586 0.1282 1.008000
18587 ca 16675 TPS CA4 18587 -0.1028 12.010000
18588 ha 16675 TPS HA4 18588 0.1262 1.008000
18589 ca 16675 TPS CA3 18589 -0.1548 12.010000
18590 ha 16675 TPS HA3 18590 0.1282 1.008000
18591 ha 16676 TPS HA2 18591 0.1332 1.008000
18592 ca 16676 TPS CA2 18592 -0.0753 12.010000
18593 ca 16676 TPS CA1 18593 -0.361 12.010000
18594 si 16676 TPS Si 18594 1.1 28.085000
18595 ca 16676 TPS CA6 18595 -0.0753 12.010000
18596 ha 16676 TPS HH6 18596 0.1332 1.008000
18597 ca 16676 TPS CA5 18597 -0.1548 12.010000
18598 ha 16676 TPS HA5 18598 0.1282 1.008000
18599 ca 16676 TPS CA4 18599 -0.1028 12.010000
18600 ha 16676 TPS HA4 18600 0.1262 1.008000
18601 ca 16676 TPS CA3 18601 -0.1548 12.010000
18602 ha 16676 TPS HA3 18602 0.1282 1.008000
18603 ha 16677 TPS HA2 18603 0.1332 1.008000
18604 ca 16677 TPS CA2 18604 -0.0753 12.010000
18605 ca 16677 TPS CA1 18605 -0.361 12.010000
18606 si 16677 TPS Si 18606 1.1 28.085000
18607 ca 16677 TPS CA6 18607 -0.0753 12.010000
18608 ha 16677 TPS HH6 18608 0.1332 1.008000
18609 ca 16677 TPS CA5 18609 -0.1548 12.010000
18610 ha 16677 TPS HA5 18610 0.1282 1.008000
18611 ca 16677 TPS CA4 18611 -0.1028 12.010000
18612 ha 16677 TPS HA4 18612 0.1262 1.008000
18613 ca 16677 TPS CA3 18613 -0.1548 12.010000
18614 ha 16677 TPS HA3 18614 0.1282 1.008000
18615 ha 16678 TPS HA2 18615 0.1332 1.008000
18616 ca 16678 TPS CA2 18616 -0.0753 12.010000
18617 ca 16678 TPS CA1 18617 -0.361 12.010000
18618 si 16678 TPS Si 18618 1.1 28.085000
18619 ca 16678 TPS CA6 18619 -0.0753 12.010000
18620 ha 16678 TPS HH6 18620 0.1332 1.008000
18621 ca 16678 TPS CA5 18621 -0.1548 12.010000
18622 ha 16678 TPS HA5 18622 0.1282 1.008000
18623 ca 16678 TPS CA4 18623 -0.1028 12.010000
18624 ha 16678 TPS HA4 18624 0.1262 1.008000
18625 ca 16678 TPS CA3 18625 -0.1548 12.010000
18626 ha 16678 TPS HA3 18626 0.1282 1.008000
18627 ha 16679 TPS HA2 18627 0.1332 1.008000
18628 ca 16679 TPS CA2 18628 -0.0753 12.010000
18629 ca 16679 TPS CA1 18629 -0.361 12.010000
18630 si 16679 TPS Si 18630 1.1 28.085000
18631 ca 16679 TPS CA6 18631 -0.0753 12.010000
18632 ha 16679 TPS HH6 18632 0.1332 1.008000
18633 ca 16679 TPS CA5 18633 -0.1548 12.010000
18634 ha 16679 TPS HA5 18634 0.1282 1.008000
18635 ca 16679 TPS CA4 18635 -0.1028 12.010000
18636 ha 16679 TPS HA4 18636 0.1262 1.008000
18637 ca 16679 TPS CA3 18637 -0.1548 12.010000
18638 ha 16679 TPS HA3 18638 0.1282 1.008000
18639 ha 16680 TPS HA2 18639 0.1332 1.008000
18640 ca 16680 TPS CA2 18640 -0.0753 12.010000
18641 ca 16680 TPS CA1 18641 -0.361 12.010000
18642 si 16680 TPS Si 18642 1.1 28.085000
18643 ca 16680 TPS CA6 18643 -0.0753 12.010000
18644 ha 16680 TPS HH6 18644 0.1332 1.008000
18645 ca 16680 TPS CA5 18645 -0.1548 12.010000
18646 ha 16680 TPS HA5 18646 0.1282 1.008000
18647 ca 16680 TPS CA4 18647 -0.1028 12.010000
18648 ha 16680 TPS HA4 18648 0.1262 1.008000
18649 ca 16680 TPS CA3 18649 -0.1548 12.010000
18650 ha 16680 TPS HA3 18650 0.1282 1.008000
18651 ha 16681 TPS HA2 18651 0.1332 1.008000
18652 ca 16681 TPS CA2 18652 -0.0753 12.010000
18653 ca 16681 TPS CA1 18653 -0.361 12.010000
18654 si 16681 TPS Si 18654 1.1 28.085000
18655 ca 16681 TPS CA6 18655 -0.0753 12.010000
18656 ha 16681 TPS HH6 18656 0.1332 1.008000
18657 ca 16681 TPS CA5 18657 -0.1548 12.010000
18658 ha 16681 TPS HA5 18658 0.1282 1.008000
18659 ca 16681 TPS CA4 18659 -0.1028 12.010000
18660 ha 16681 TPS HA4 18660 0.1262 1.008000
18661 ca 16681 TPS CA3 18661 -0.1548 12.010000
18662 ha 16681 TPS HA3 18662 0.1282 1.008000
18663 ha 16682 TPS HA2 18663 0.1332 1.008000
18664 ca 16682 TPS CA2 18664 -0.0753 12.010000
18665 ca 16682 TPS CA1 18665 -0.361 12.010000
18666 si 16682 TPS Si 18666 1.1 28.085000
18667 ca 16682 TPS CA6 18667 -0.0753 12.010000
18668 ha 16682 TPS HH6 18668 0.1332 1.008000
18669 ca 16682 TPS CA5 18669 -0.1548 12.010000
18670 ha 16682 TPS HA5 18670 0.1282 1.008000
18671 ca 16682 TPS CA4 18671 -0.1028 12.010000
18672 ha 16682 TPS HA4 18672 0.1262 1.008000
18673 ca 16682 TPS CA3 18673 -0.1548 12.010000
18674 ha 16682 TPS HA3 18674 0.1282 1.008000
18675 ha 16683 TPS HA2 18675 0.1332 1.008000
18676 ca 16683 TPS CA2 18676 -0.0753 12.010000
18677 ca 16683 TPS CA1 18677 -0.361 12.010000
18678 si 16683 TPS Si 18678 1.1 28.085000
18679 ca 16683 TPS CA6 18679 -0.0753 12.010000
18680 ha 16683 TPS HH6 18680 0.1332 1.008000
18681 ca 16683 TPS CA5 18681 -0.1548 12.010000
18682 ha 16683 TPS HA5 18682 0.1282 1.008000
18683 ca 16683 TPS CA4 18683 -0.1028 12.010000
18684 ha 16683 TPS HA4 18684 0.1262 1.008000
18685 ca 16683 TPS CA3 18685 -0.1548 12.010000
18686 ha 16683 TPS HA3 18686 0.1282 1.008000
18687 ha 16684 TPS HA2 18687 0.1332 1.008000
18688 ca 16684 TPS CA2 18688 -0.0753 12.010000
18689 ca 16684 TPS CA1 18689 -0.361 12.010000
18690 si 16684 TPS Si 18690 1.1 28.085000
18691 ca 16684 TPS CA6 18691 -0.0753 12.010000
18692 ha 16684 TPS HH6 18692 0.1332 1.008000
18693 ca 16684 TPS CA5 18693 -0.1548 12.010000
18694 ha 16684 TPS HA5 18694 0.1282 1.008000
18695 ca 16684 TPS CA4 18695 -0.1028 12.010000
18696 ha 16684 TPS HA4 18696 0.1262 1.008000
18697 ca 16684 TPS CA3 18697 -0.1548 12.010000
18698 ha 16684 TPS HA3 18698 0.1282 1.008000
18699 ha 16685 TPS HA2 18699 0.1332 1.008000
18700 ca 16685 TPS CA2 18700 -0.0753 12.010000
18701 ca 16685 TPS CA1 18701 -0.361 12.010000
18702 si 16685 TPS Si 18702 1.1 28.085000
18703 ca 16685 TPS CA6 18703 -0.0753 12.010000
18704 ha 16685 TPS HH6 18704 0.1332 1.008000
18705 ca 16685 TPS CA5 18705 -0.1548 12.010000
18706 ha 16685 TPS HA5 18706 0.1282 1.008000
18707 ca 16685 TPS CA4 18707 -0.1028 12.010000
18708 ha 16685 TPS HA4 18708 0.1262 1.008000
18709 ca 16685 TPS CA3 18709 -0.1548 12.010000
18710 ha 16685 TPS HA3 18710 0.1282 1.008000
18711 ha 16686 TPS HA2 18711 0.1332 1.008000
18712 ca 16686 TPS CA2 18712 -0.0753 12.010000
18713 ca 16686 TPS CA1 18713 -0.361 12.010000
18714 si 16686 TPS Si 18714 1.1 28.085000
18715 ca 16686 TPS CA6 18715 -0.0753 12.010000
18716 ha 16686 TPS HH6 18716 0.1332 1.008000
18717 ca 16686 TPS CA5 18717 -0.1548 12.010000
18718 ha 16686 TPS HA5 18718 0.1282 1.008000
18719 ca 16686 TPS CA4 18719 -0.1028 12.010000
18720 ha 16686 TPS HA4 18720 0.1262 1.008000
18721 ca 16686 TPS CA3 18721 -0.1548 12.010000
18722 ha 16686 TPS HA3 18722 0.1282 1.008000
18723 ha 16687 TPS HA2 18723 0.1332 1.008000
18724 ca 16687 TPS CA2 18724 -0.0753 12.010000
18725 ca 16687 TPS CA1 18725 -0.361 12.010000
18726 si 16687 TPS Si 18726 1.1 28.085000
18727 ca 16687 TPS CA6 18727 -0.0753 12.010000
18728 ha 16687 TPS HH6 18728 0.1332 1.008000
18729 ca 16687 TPS CA5 18729 -0.1548 12.010000
18730 ha 16687 TPS HA5 18730 0.1282 1.008000
18731 ca 16687 TPS CA4 18731 -0.1028 12.010000
18732 ha 16687 TPS HA4 18732 0.1262 1.008000
18733 ca 16687 TPS CA3 18733 -0.1548 12.010000
18734 ha 16687 TPS HA3 18734 0.1282 1.008000
18735 ha 16688 TPS HA2 18735 0.1332 1.008000
18736 ca 16688 TPS CA2 18736 -0.0753 12.010000
18737 ca 16688 TPS CA1 18737 -0.361 12.010000
18738 si 16688 TPS Si 18738 1.1 28.085000
18739 ca 16688 TPS CA6 18739 -0.0753 12.010000
18740 ha 16688 TPS HH6 18740 0.1332 1.008000
18741 ca 16688 TPS CA5 18741 -0.1548 12.010000
18742 ha 16688 TPS HA5 18742 0.1282 1.008000
18743 ca 16688 TPS CA4 18743 -0.1028 12.010000
18744 ha 16688 TPS HA4 18744 0.1262 1.008000
18745 ca 16688 TPS CA3 18745 -0.1548 12.010000
18746 ha 16688 TPS HA3 18746 0.1282 1.008000
18747 ha 16689 TPS HA2 18747 0.1332 1.008000
18748 ca 16689 TPS CA2 18748 -0.0753 12.010000
18749 ca 16689 TPS CA1 18749 -0.361 12.010000
18750 si 16689 TPS Si 18750 1.1 28.085000
18751 ca 16689 TPS CA6 18751 -0.0753 12.010000
18752 ha 16689 TPS HH6 18752 0.1332 1.008000
18753 ca 16689 TPS CA5 18753 -0.1548 12.010000
18754 ha 16689 TPS HA5 18754 0.1282 1.008000
18755 ca 16689 TPS CA4 18755 -0.1028 12.010000
18756 ha 16689 TPS HA4 18756 0.1262 1.008000
18757 ca 16689 TPS CA3 18757 -0.1548 12.010000
18758 ha 16689 TPS HA3 18758 0.1282 1.008000
18759 ha 16690 TPS HA2 18759 0.1332 1.008000
18760 ca 16690 TPS CA2 18760 -0.0753 12.010000
18761 ca 16690 TPS CA1 18761 -0.361 12.010000
18762 si 16690 TPS Si 18762 1.1 28.085000
18763 ca 16690 TPS CA6 18763 -0.0753 12.010000
18764 ha 16690 TPS HH6 18764 0.1332 1.008000
18765 ca 16690 TPS CA5 18765 -0.1548 12.010000
18766 ha 16690 TPS HA5 18766 0.1282 1.008000
18767 ca 16690 TPS CA4 18767 -0.1028 12.010000
18768 ha 16690 TPS HA4 18768 0.1262 1.008000
18769 ca 16690 TPS CA3 18769 -0.1548 12.010000
18770 ha 16690 TPS HA3 18770 0.1282 1.008000
18771 ha 16691 TPS HA2 18771 0.1332 1.008000
18772 ca 16691 TPS CA2 18772 -0.0753 12.010000
18773 ca 16691 TPS CA1 18773 -0.361 12.010000
18774 si 16691 TPS Si 18774 1.1 28.085000
18775 ca 16691 TPS CA6 18775 -0.0753 12.010000
18776 ha 16691 TPS HH6 18776 0.1332 1.008000
18777 ca 16691 TPS CA5 18777 -0.1548 12.010000
18778 ha 16691 TPS HA5 18778 0.1282 1.008000
18779 ca 16691 TPS CA4 18779 -0.1028 12.010000
18780 ha 16691 TPS HA4 18780 0.1262 1.008000
18781 ca 16691 TPS CA3 18781 -0.1548 12.010000
18782 ha 16691 TPS HA3 18782 0.1282 1.008000
18783 ha 16692 TPS HA2 18783 0.1332 1.008000
18784 ca 16692 TPS CA2 18784 -0.0753 12.010000
18785 ca 16692 TPS CA1 18785 -0.361 12.010000
18786 si 16692 TPS Si 18786 1.1 28.085000
18787 ca 16692 TPS CA6 18787 -0.0753 12.010000
18788 ha 16692 TPS HH6 18788 0.1332 1.008000
18789 ca 16692 TPS CA5 18789 -0.1548 12.010000
18790 ha 16692 TPS HA5 18790 0.1282 1.008000
18791 ca 16692 TPS CA4 18791 -0.1028 12.010000
18792 ha 16692 TPS HA4 18792 0.1262 1.008000
18793 ca 16692 TPS CA3 18793 -0.1548 12.010000
18794 ha 16692 TPS HA3 18794 0.1282 1.008000
18795 ha 16693 TPS HA2 18795 0.1332 1.008000
18796 ca 16693 TPS CA2 18796 -0.0753 12.010000
18797 ca 16693 TPS CA1 18797 -0.361 12.010000
18798 si 16693 TPS Si 18798 1.1 28.085000
18799 ca 16693 TPS CA6 18799 -0.0753 12.010000
18800 ha 16693 TPS HH6 18800 0.1332 1.008000
18801 ca 16693 TPS CA5 18801 -0.1548 12.010000
18802 ha 16693 TPS HA5 18802 0.1282 1.008000
18803 ca 16693 TPS CA4 18803 -0.1028 12.010000
18804 ha 16693 TPS HA4 18804 0.1262 1.008000
18805 ca 16693 TPS CA3 18805 -0.1548 12.010000
18806 ha 16693 TPS HA3 18806 0.1282 1.008000
18807 ha 16694 TPS HA2 18807 0.1332 1.008000
18808 ca 16694 TPS CA2 18808 -0.0753 12.010000
18809 ca 16694 TPS CA1 18809 -0.361 12.010000
18810 si 16694 TPS Si 18810 1.1 28.085000
18811 ca 16694 TPS CA6 18811 -0.0753 12.010000
18812 ha 16694 TPS HH6 18812 0.1332 1.008000
18813 ca 16694 TPS CA5 18813 -0.1548 12.010000
18814 ha 16694 TPS HA5 18814 0.1282 1.008000
18815 ca 16694 TPS CA4 18815 -0.1028 12.010000
18816 ha 16694 TPS HA4 18816 0.1262 1.008000
18817 ca 16694 TPS CA3 18817 -0.1548 12.010000
18818 ha 16694 TPS HA3 18818 0.1282 1.008000
18819 ha 16695 TPS HA2 18819 0.1332 1.008000
18820 ca 16695 TPS CA2 18820 -0.0753 12.010000
18821 ca 16695 TPS CA1 18821 -0.361 12.010000
18822 si 16695 TPS Si 18822 1.1 28.085000
18823 ca 16695 TPS CA6 18823 -0.0753 12.010000
18824 ha 16695 TPS HH6 18824 0.1332 1.008000
18825 ca 16695 TPS CA5 18825 -0.1548 12.010000
18826 ha 16695 TPS HA5 18826 0.1282 1.008000
18827 ca 16695 TPS CA4 18827 -0.1028 12.010000
18828 ha 16695 TPS HA4 18828 0.1262 1.008000
18829 ca 16695 TPS CA3 18829 -0.1548 12.010000
18830 ha 16695 TPS HA3 18830 0.1282 1.008000
18831 ha 16696 TPS HA2 18831 0.1332 1.008000
18832 ca 16696 TPS CA2 18832 -0.0753 12.010000
18833 ca 16696 TPS CA1 18833 -0.361 12.010000
18834 si 16696 TPS Si 18834 1.1 28.085000
18835 ca 16696 TPS CA6 18835 -0.0753 12.010000
18836 ha 16696 TPS HH6 18836 0.1332 1.008000
18837 ca 16696 TPS CA5 18837 -0.1548 12.010000
18838 ha 16696 TPS HA5 18838 0.1282 1.008000
18839 ca 16696 TPS CA4 18839 -0.1028 12.010000
18840 ha 16696 TPS HA4 18840 0.1262 1.008000
18841 ca 16696 TPS CA3 18841 -0.1548 12.010000
18842 ha 16696 TPS HA3 18842 0.1282 1.008000
18843 ha 16697 TPS HA2 18843 0.1332 1.008000
18844 ca 16697 TPS CA2 18844 -0.0753 12.010000
18845 ca 16697 TPS CA1 18845 -0.361 12.010000
18846 si 16697 TPS Si 18846 1.1 28.085000
18847 ca 16697 TPS CA6 18847 -0.0753 12.010000
18848 ha 16697 TPS HH6 18848 0.1332 1.008000
18849 ca 16697 TPS CA5 18849 -0.1548 12.010000
18850 ha 16697 TPS HA5 18850 0.1282 1.008000
18851 ca 16697 TPS CA4 18851 -0.1028 12.010000
18852 ha 16697 TPS HA4 18852 0.1262 1.008000
18853 ca 16697 TPS CA3 18853 -0.1548 12.010000
18854 ha 16697 TPS HA3 18854 0.1282 1.008000
18855 ha 16698 TPS HA2 18855 0.1332 1.008000
18856 ca 16698 TPS CA2 18856 -0.0753 12.010000
18857 ca 16698 TPS CA1 18857 -0.361 12.010000
18858 si 16698 TPS Si 18858 1.1 28.085000
18859 ca 16698 TPS CA6 18859 -0.0753 12.010000
18860 ha 16698 TPS HH6 18860 0.1332 1.008000
18861 ca 16698 TPS CA5 18861 -0.1548 12.010000
18862 ha 16698 TPS HA5 18862 0.1282 1.008000
18863 ca 16698 TPS CA4 18863 -0.1028 12.010000
18864 ha 16698 TPS HA4 18864 0.1262 1.008000
18865 ca 16698 TPS CA3 18865 -0.1548 12.010000
18866 ha 16698 TPS HA3 18866 0.1282 1.008000
18867 ha 16699 TPS HA2 18867 0.1332 1.008000
18868 ca 16699 TPS CA2 18868 -0.0753 12.010000
18869 ca 16699 TPS CA1 18869 -0.361 12.010000
18870 si 16699 TPS Si 18870 1.1 28.085000
18871 ca 16699 TPS CA6 18871 -0.0753 12.010000
18872 ha 16699 TPS HH6 18872 0.1332 1.008000
18873 ca 16699 TPS CA5 18873 -0.1548 12.010000
18874 ha 16699 TPS HA5 18874 0.1282 1.008000
18875 ca 16699 TPS CA4 18875 -0.1028 12.010000
18876 ha 16699 TPS HA4 18876 0.1262 1.008000
18877 ca 16699 TPS CA3 18877 -0.1548 12.010000
18878 ha 16699 TPS HA3 18878 0.1282 1.008000
18879 ha 16700 TPS HA2 18879 0.1332 1.008000
18880 ca 16700 TPS CA2 18880 -0.0753 12.010000
18881 ca 16700 TPS CA1 18881 -0.361 12.010000
18882 si 16700 TPS Si 18882 1.1 28.085000
18883 ca 16700 TPS CA6 18883 -0.0753 12.010000
18884 ha 16700 TPS HH6 18884 0.1332 1.008000
18885 ca 16700 TPS CA5 18885 -0.1548 12.010000
18886 ha 16700 TPS HA5 18886 0.1282 1.008000
18887 ca 16700 TPS CA4 18887 -0.1028 12.010000
18888 ha 16700 TPS HA4 18888 0.1262 1.008000
18889 ca 16700 TPS CA3 18889 -0.1548 12.010000
18890 ha 16700 TPS HA3 18890 0.1282 1.008000
18891 ha 16701 TPS HA2 18891 0.1332 1.008000
18892 ca 16701 TPS CA2 18892 -0.0753 12.010000
18893 ca 16701 TPS CA1 18893 -0.361 12.010000
18894 si 16701 TPS Si 18894 1.1 28.085000
18895 ca 16701 TPS CA6 18895 -0.0753 12.010000
18896 ha 16701 TPS HH6 18896 0.1332 1.008000
18897 ca 16701 TPS CA5 18897 -0.1548 12.010000
18898 ha 16701 TPS HA5 18898 0.1282 1.008000
18899 ca 16701 TPS CA4 18899 -0.1028 12.010000
18900 ha 16701 TPS HA4 18900 0.1262 1.008000
18901 ca 16701 TPS CA3 18901 -0.1548 12.010000
18902 ha 16701 TPS HA3 18902 0.1282 1.008000
18903 ha 16702 TPS HA2 18903 0.1332 1.008000
18904 ca 16702 TPS CA2 18904 -0.0753 12.010000
18905 ca 16702 TPS CA1 18905 -0.361 12.010000
18906 si 16702 TPS Si 18906 1.1 28.085000
18907 ca 16702 TPS CA6 18907 -0.0753 12.010000
18908 ha 16702 TPS HH6 18908 0.1332 1.008000
18909 ca 16702 TPS CA5 18909 -0.1548 12.010000
18910 ha 16702 TPS HA5 18910 0.1282 1.008000
18911 ca 16702 TPS CA4 18911 -0.1028 12.010000
18912 ha 16702 TPS HA4 18912 0.1262 1.008000
18913 ca 16702 TPS CA3 18913 -0.1548 12.010000
18914 ha 16702 TPS HA3 18914 0.1282 1.008000
18915 ha 16703 TPS HA2 18915 0.1332 1.008000
18916 ca 16703 TPS CA2 18916 -0.0753 12.010000
18917 ca 16703 TPS CA1 18917 -0.361 12.010000
18918 si 16703 TPS Si 18918 1.1 28.085000
18919 ca 16703 TPS CA6 18919 -0.0753 12.010000
18920 ha 16703 TPS HH6 18920 0.1332 1.008000
18921 ca 16703 TPS CA5 18921 -0.1548 12.010000
18922 ha 16703 TPS HA5 18922 0.1282 1.008000
18923 ca 16703 TPS CA4 18923 -0.1028 12.010000
18924 ha 16703 TPS HA4 18924 0.1262 1.008000
18925 ca 16703 TPS CA3 18925 -0.1548 12.010000
18926 ha 16703 TPS HA3 18926 0.1282 1.008000
18927 ha 16704 TPS HA2 18927 0.1332 1.008000
18928 ca 16704 TPS CA2 18928 -0.0753 12.010000
18929 ca 16704 TPS CA1 18929 -0.361 12.010000
18930 si 16704 TPS Si 18930 1.1 28.085000
18931 ca 16704 TPS CA6 18931 -0.0753 12.010000
18932 ha 16704 TPS HH6 18932 0.1332 1.008000
18933 ca 16704 TPS CA5 18933 -0.1548 12.010000
18934 ha 16704 TPS HA5 18934 0.1282 1.008000
18935 ca 16704 TPS CA4 18935 -0.1028 12.010000
18936 ha 16704 TPS HA4 18936 0.1262 1.008000
18937 ca 16704 TPS CA3 18937 -0.1548 12.010000
18938 ha 16704 TPS HA3 18938 0.1282 1.008000
18939 ha 16705 TPS HA2 18939 0.1332 1.008000
18940 ca 16705 TPS CA2 18940 -0.0753 12.010000
18941 ca 16705 TPS CA1 18941 -0.361 12.010000
18942 si 16705 TPS Si 18942 1.1 28.085000
18943 ca 16705 TPS CA6 18943 -0.0753 12.010000
18944 ha 16705 TPS HH6 18944 0.1332 1.008000
18945 ca 16705 TPS CA5 18945 -0.1548 12.010000
18946 ha 16705 TPS HA5 18946 0.1282 1.008000
18947 ca 16705 TPS CA4 18947 -0.1028 12.010000
18948 ha 16705 TPS HA4 18948 0.1262 1.008000
18949 ca 16705 TPS CA3 18949 -0.1548 12.010000
18950 ha 16705 TPS HA3 18950 0.1282 1.008000
18951 ha 16706 TPS HA2 18951 0.1332 1.008000
18952 ca 16706 TPS CA2 18952 -0.0753 12.010000
18953 ca 16706 TPS CA1 18953 -0.361 12.010000
18954 si 16706 TPS Si 18954 1.1 28.085000
18955 ca 16706 TPS CA6 18955 -0.0753 12.010000
18956 ha 16706 TPS HH6 18956 0.1332 1.008000
18957 ca 16706 TPS CA5 18957 -0.1548 12.010000
18958 ha 16706 TPS HA5 18958 0.1282 1.008000
18959 ca 16706 TPS CA4 18959 -0.1028 12.010000
18960 ha 16706 TPS HA4 18960 0.1262 1.008000
18961 ca 16706 TPS CA3 18961 -0.1548 12.010000
18962 ha 16706 TPS HA3 18962 0.1282 1.008000
18963 ha 16707 TPS HA2 18963 0.1332 1.008000
18964 ca 16707 TPS CA2 18964 -0.0753 12.010000
18965 ca 16707 TPS CA1 18965 -0.361 12.010000
18966 si 16707 TPS Si 18966 1.1 28.085000
18967 ca 16707 TPS CA6 18967 -0.0753 12.010000
18968 ha 16707 TPS HH6 18968 0.1332 1.008000
18969 ca 16707 TPS CA5 18969 -0.1548 12.010000
18970 ha 16707 TPS HA5 18970 0.1282 1.008000
18971 ca 16707 TPS CA4 18971 -0.1028 12.010000
18972 ha 16707 TPS HA4 18972 0.1262 1.008000
18973 ca 16707 TPS CA3 18973 -0.1548 12.010000
18974 ha 16707 TPS HA3 18974 0.1282 1.008000
18975 ha 16708 TPS HA2 18975 0.1332 1.008000
18976 ca 16708 TPS CA2 18976 -0.0753 12.010000
18977 ca 16708 TPS CA1 18977 -0.361 12.010000
18978 si 16708 TPS Si 18978 1.1 28.085000
18979 ca 16708 TPS CA6 18979 -0.0753 12.010000
18980 ha 16708 TPS HH6 18980 0.1332 1.008000
18981 ca 16708 TPS CA5 18981 -0.1548 12.010000
18982 ha 16708 TPS HA5 18982 0.1282 1.008000
18983 ca 16708 TPS CA4 18983 -0.1028 12.010000
18984 ha 16708 TPS HA4 18984 0.1262 1.008000
18985 ca 16708 TPS CA3 18985 -0.1548 12.010000
18986 ha 16708 TPS HA3 18986 0.1282 1.008000
18987 ha 16709 TPS HA2 18987 0.1332 1.008000
18988 ca 16709 TPS CA2 18988 -0.0753 12.010000
18989 ca 16709 TPS CA1 18989 -0.361 12.010000
18990 si 16709 TPS Si 18990 1.1 28.085000
18991 ca 16709 TPS CA6 18991 -0.0753 12.010000
18992 ha 16709 TPS HH6 18992 0.1332 1.008000
18993 ca 16709 TPS CA5 18993 -0.1548 12.010000
18994 ha 16709 TPS HA5 18994 0.1282 1.008000
18995 ca 16709 TPS CA4 18995 -0.1028 12.010000
18996 ha 16709 TPS HA4 18996 0.1262 1.008000
18997 ca 16709 TPS CA3 18997 -0.1548 12.010000
18998 ha 16709 TPS HA3 18998 0.1282 1.008000
18999 ha 16710 TPS HA2 18999 0.1332 1.008000
19000 ca 16710 TPS CA2 19000 -0.0753 12.010000
19001 ca 16710 TPS CA1 19001 -0.361 12.010000
19002 si 16710 TPS Si 19002 1.1 28.085000
19003 ca 16710 TPS CA6 19003 -0.0753 12.010000
19004 ha 16710 TPS HH6 19004 0.1332 1.008000
19005 ca 16710 TPS CA5 19005 -0.1548 12.010000
19006 ha 16710 TPS HA5 19006 0.1282 1.008000
19007 ca 16710 TPS CA4 19007 -0.1028 12.010000
19008 ha 16710 TPS HA4 19008 0.1262 1.008000
19009 ca 16710 TPS CA3 19009 -0.1548 12.010000
19010 ha 16710 TPS HA3 19010 0.1282 1.008000
19011 ha 16711 TPS HA2 19011 0.1332 1.008000
19012 ca 16711 TPS CA2 19012 -0.0753 12.010000
19013 ca 16711 TPS CA1 19013 -0.361 12.010000
19014 si 16711 TPS Si 19014 1.1 28.085000
19015 ca 16711 TPS CA6 19015 -0.0753 12.010000
19016 ha 16711 TPS HH6 19016 0.1332 1.008000
19017 ca 16711 TPS CA5 19017 -0.1548 12.010000
19018 ha 16711 TPS HA5 19018 0.1282 1.008000
19019 ca 16711 TPS CA4 19019 -0.1028 12.010000
19020 ha 16711 TPS HA4 19020 0.1262 1.008000
19021 ca 16711 TPS CA3 19021 -0.1548 12.010000
19022 ha 16711 TPS HA3 19022 0.1282 1.008000
19023 ha 16712 TPS HA2 19023 0.1332 1.008000
19024 ca 16712 TPS CA2 19024 -0.0753 12.010000
19025 ca 16712 TPS CA1 19025 -0.361 12.010000
19026 si 16712 TPS Si 19026 1.1 28.085000
19027 ca 16712 TPS CA6 19027 -0.0753 12.010000
19028 ha 16712 TPS HH6 19028 0.1332 1.008000
19029 ca 16712 TPS CA5 19029 -0.1548 12.010000
19030 ha 16712 TPS HA5 19030 0.1282 1.008000
19031 ca 16712 TPS CA4 19031 -0.1028 12.010000
19032 ha 16712 TPS HA4 19032 0.1262 1.008000
19033 ca 16712 TPS CA3 19033 -0.1548 12.010000
19034 ha 16712 TPS HA3 19034 0.1282 1.008000
19035 ha 16713 TPS HA2 19035 0.1332 1.008000
19036 ca 16713 TPS CA2 19036 -0.0753 12.010000
19037 ca 16713 TPS CA1 19037 -0.361 12.010000
19038 si 16713 TPS Si 19038 1.1 28.085000
19039 ca 16713 TPS CA6 19039 -0.0753 12.010000
19040 ha 16713 TPS HH6 19040 0.1332 1.008000
19041 ca 16713 TPS CA5 19041 -0.1548 12.010000
19042 ha 16713 TPS HA5 19042 0.1282 1.008000
19043 ca 16713 TPS CA4 19043 -0.1028 12.010000
19044 ha 16713 TPS HA4 19044 0.1262 1.008000
19045 ca 16713 TPS CA3 19045 -0.1548 12.010000
19046 ha 16713 TPS HA3 19046 0.1282 1.008000
19047 ha 16714 TPS HA2 19047 0.1332 1.008000
19048 ca 16714 TPS CA2 19048 -0.0753 12.010000
19049 ca 16714 TPS CA1 19049 -0.361 12.010000
19050 si 16714 TPS Si 19050 1.1 28.085000
19051 ca 16714 TPS CA6 19051 -0.0753 12.010000
19052 ha 16714 TPS HH6 19052 0.1332 1.008000
19053 ca 16714 TPS CA5 19053 -0.1548 12.010000
19054 ha 16714 TPS HA5 19054 0.1282 1.008000
19055 ca 16714 TPS CA4 19055 -0.1028 12.010000
19056 ha 16714 TPS HA4 19056 0.1262 1.008000
19057 ca 16714 TPS CA3 19057 -0.1548 12.010000
19058 ha 16714 TPS HA3 19058 0.1282 1.008000
19059 ha 16715 TPS HA2 19059 0.1332 1.008000
19060 ca 16715 TPS CA2 19060 -0.0753 12.010000
19061 ca 16715 TPS CA1 19061 -0.361 12.010000
19062 si 16715 TPS Si 19062 1.1 28.085000
19063 ca 16715 TPS CA6 19063 -0.0753 12.010000
19064 ha 16715 TPS HH6 19064 0.1332 1.008000
19065 ca 16715 TPS CA5 19065 -0.1548 12.010000
19066 ha 16715 TPS HA5 19066 0.1282 1.008000
19067 ca 16715 TPS CA4 19067 -0.1028 12.010000
19068 ha 16715 TPS HA4 19068 0.1262 1.008000
19069 ca 16715 TPS CA3 19069 -0.1548 12.010000
19070 ha 16715 TPS HA3 19070 0.1282 1.008000
19071 ha 16716 TPS HA2 19071 0.1332 1.008000
19072 ca 16716 TPS CA2 19072 -0.0753 12.010000
19073 ca 16716 TPS CA1 19073 -0.361 12.010000
19074 si 16716 TPS Si 19074 1.1 28.085000
19075 ca 16716 TPS CA6 19075 -0.0753 12.010000
19076 ha 16716 TPS HH6 19076 0.1332 1.008000
19077 ca 16716 TPS CA5 19077 -0.1548 12.010000
19078 ha 16716 TPS HA5 19078 0.1282 1.008000
19079 ca 16716 TPS CA4 19079 -0.1028 12.010000
19080 ha 16716 TPS HA4 19080 0.1262 1.008000
19081 ca 16716 TPS CA3 19081 -0.1548 12.010000
19082 ha 16716 TPS HA3 19082 0.1282 1.008000
19083 ha 16717 TPS HA2 19083 0.1332 1.008000
19084 ca 16717 TPS CA2 19084 -0.0753 12.010000
19085 ca 16717 TPS CA1 19085 -0.361 12.010000
19086 si 16717 TPS Si 19086 1.1 28.085000
19087 ca 16717 TPS CA6 19087 -0.0753 12.010000
19088 ha 16717 TPS HH6 19088 0.1332 1.008000
19089 ca 16717 TPS CA5 19089 -0.1548 12.010000
19090 ha 16717 TPS HA5 19090 0.1282 1.008000
19091 ca 16717 TPS CA4 19091 -0.1028 12.010000
19092 ha 16717 TPS HA4 19092 0.1262 1.008000
19093 ca 16717 TPS CA3 19093 -0.1548 12.010000
19094 ha 16717 TPS HA3 19094 0.1282 1.008000
19095 ha 16718 TPS HA2 19095 0.1332 1.008000
19096 ca 16718 TPS CA2 19096 -0.0753 12.010000
19097 ca 16718 TPS CA1 19097 -0.361 12.010000
19098 si 16718 TPS Si 19098 1.1 28.085000
19099 ca 16718 TPS CA6 19099 -0.0753 12.010000
19100 ha 16718 TPS HH6 19100 0.1332 1.008000
19101 ca 16718 TPS CA5 19101 -0.1548 12.010000
19102 ha 16718 TPS HA5 19102 0.1282 1.008000
19103 ca 16718 TPS CA4 19103 -0.1028 12.010000
19104 ha 16718 TPS HA4 19104 0.1262 1.008000
19105 ca 16718 TPS CA3 19105 -0.1548 12.010000
19106 ha 16718 TPS HA3 19106 0.1282 1.008000
19107 ha 16719 TPS HA2 19107 0.1332 1.008000
19108 ca 16719 TPS CA2 19108 -0.0753 12.010000
19109 ca 16719 TPS CA1 19109 -0.361 12.010000
19110 si 16719 TPS Si 19110 1.1 28.085000
19111 ca 16719 TPS CA6 19111 -0.0753 12.010000
19112 ha 16719 TPS HH6 19112 0.1332 1.008000
19113 ca 16719 TPS CA5 19113 -0.1548 12.010000
19114 ha 16719 TPS HA5 19114 0.1282 1.008000
19115 ca 16719 TPS CA4 19115 -0.1028 12.010000
19116 ha 16719 TPS HA4 19116 0.1262 1.008000
19117 ca 16719 TPS CA3 19117 -0.1548 12.010000
19118 ha 16719 TPS HA3 19118 0.1282 1.008000
19119 ha 16720 TPS HA2 19119 0.1332 1.008000
19120 ca 16720 TPS CA2 19120 -0.0753 12.010000
19121 ca 16720 TPS CA1 19121 -0.361 12.010000
19122 si 16720 TPS Si 19122 1.1 28.085000
19123 ca 16720 TPS CA6 19123 -0.0753 12.010000
19124 ha 16720 TPS HH6 19124 0.1332 1.008000
19125 ca 16720 TPS CA5 19125 -0.1548 12.010000
19126 ha 16720 TPS HA5 19126 0.1282 1.008000
19127 ca 16720 TPS CA4 19127 -0.1028 12.010000
19128 ha 16720 TPS HA4 19128 0.1262 1.008000
19129 ca 16720 TPS CA3 19129 -0.1548 12.010000
19130 ha 16720 TPS HA3 19130 0.1282 1.008000
19131 ha 16721 TPS HA2 19131 0.1332 1.008000
19132 ca 16721 TPS CA2 19132 -0.0753 12.010000
19133 ca 16721 TPS CA1 19133 -0.361 12.010000
19134 si 16721 TPS Si 19134 1.1 28.085000
19135 ca 16721 TPS CA6 19135 -0.0753 12.010000
19136 ha 16721 TPS HH6 19136 0.1332 1.008000
19137 ca 16721 TPS CA5 19137 -0.1548 12.010000
19138 ha 16721 TPS HA5 19138 0.1282 1.008000
19139 ca 16721 TPS CA4 19139 -0.1028 12.010000
19140 ha 16721 TPS HA4 19140 0.1262 1.008000
19141 ca 16721 TPS CA3 19141 -0.1548 12.010000
19142 ha 16721 TPS HA3 19142 0.1282 1.008000
19143 ha 16722 TPS HA2 19143 0.1332 1.008000
19144 ca 16722 TPS CA2 19144 -0.0753 12.010000
19145 ca 16722 TPS CA1 19145 -0.361 12.010000
19146 si 16722 TPS Si 19146 1.1 28.085000
19147 ca 16722 TPS CA6 19147 -0.0753 12.010000
19148 ha 16722 TPS HH6 19148 0.1332 1.008000
19149 ca 16722 TPS CA5 19149 -0.1548 12.010000
19150 ha 16722 TPS HA5 19150 0.1282 1.008000
19151 ca 16722 TPS CA4 19151 -0.1028 12.010000
19152 ha 16722 TPS HA4 19152 0.1262 1.008000
19153 ca 16722 TPS CA3 19153 -0.1548 12.010000
19154 ha 16722 TPS HA3 19154 0.1282 1.008000
19155 ha 16723 TPS HA2 19155 0.1332 1.008000
19156 ca 16723 TPS CA2 19156 -0.0753 12.010000
19157 ca 16723 TPS CA1 19157 -0.361 12.010000
19158 si 16723 TPS Si 19158 1.1 28.085000
19159 ca 16723 TPS CA6 19159 -0.0753 12.010000
19160 ha 16723 TPS HH6 19160 0.1332 1.008000
19161 ca 16723 TPS CA5 19161 -0.1548 12.010000
19162 ha 16723 TPS HA5 19162 0.1282 1.008000
19163 ca 16723 TPS CA4 19163 -0.1028 12.010000
19164 ha 16723 TPS HA4 19164 0.1262 1.008000
19165 ca 16723 TPS CA3 19165 -0.1548 12.010000
19166 ha 16723 TPS HA3 19166 0.1282 1.008000
19167 ha 16724 TPS HA2 19167 0.1332 1.008000
19168 ca 16724 TPS CA2 19168 -0.0753 12.010000
19169 ca 16724 TPS CA1 19169 -0.361 12.010000
19170 si 16724 TPS Si 19170 1.1 28.085000
19171 ca 16724 TPS CA6 19171 -0.0753 12.010000
19172 ha 16724 TPS HH6 19172 0.1332 1.008000
19173 ca 16724 TPS CA5 19173 -0.1548 12.010000
19174 ha 16724 TPS HA5 19174 0.1282 1.008000
19175 ca 16724 TPS CA4 19175 -0.1028 12.010000
19176 ha 16724 TPS HA4 19176 0.1262 1.008000
19177 ca 16724 TPS CA3 19177 -0.1548 12.010000
19178 ha 16724 TPS HA3 19178 0.1282 1.008000
19179 ha 16725 TPS HA2 19179 0.1332 1.008000
19180 ca 16725 TPS CA2 19180 -0.0753 12.010000
19181 ca 16725 TPS CA1 19181 -0.361 12.010000
19182 si 16725 TPS Si 19182 1.1 28.085000
19183 ca 16725 TPS CA6 19183 -0.0753 12.010000
19184 ha 16725 TPS HH6 19184 0.1332 1.008000
19185 ca 16725 TPS CA5 19185 -0.1548 12.010000
19186 ha 16725 TPS HA5 19186 0.1282 1.008000
19187 ca 16725 TPS CA4 19187 -0.1028 12.010000
19188 ha 16725 TPS HA4 19188 0.1262 1.008000
19189 ca 16725 TPS CA3 19189 -0.1548 12.010000
19190 ha 16725 TPS HA3 19190 0.1282 1.008000
19191 ha 16726 TPS HA2 19191 0.1332 1.008000
19192 ca 16726 TPS CA2 19192 -0.0753 12.010000
19193 ca 16726 TPS CA1 19193 -0.361 12.010000
19194 si 16726 TPS Si 19194 1.1 28.085000
19195 ca 16726 TPS CA6 19195 -0.0753 12.010000
19196 ha 16726 TPS HH6 19196 0.1332 1.008000
19197 ca 16726 TPS CA5 19197 -0.1548 12.010000
19198 ha 16726 TPS HA5 19198 0.1282 1.008000
19199 ca 16726 TPS CA4 19199 -0.1028 12.010000
19200 ha 16726 TPS HA4 19200 0.1262 1.008000
19201 ca 16726 TPS CA3 19201 -0.1548 12.010000
19202 ha 16726 TPS HA3 19202 0.1282 1.008000
19203 ha 16727 TPS HA2 19203 0.1332 1.008000
19204 ca 16727 TPS CA2 19204 -0.0753 12.010000
19205 ca 16727 TPS CA1 19205 -0.361 12.010000
19206 si 16727 TPS Si 19206 1.1 28.085000
19207 ca 16727 TPS CA6 19207 -0.0753 12.010000
19208 ha 16727 TPS HH6 19208 0.1332 1.008000
19209 ca 16727 TPS CA5 19209 -0.1548 12.010000
19210 ha 16727 TPS HA5 19210 0.1282 1.008000
19211 ca 16727 TPS CA4 19211 -0.1028 12.010000
19212 ha 16727 TPS HA4 19212 0.1262 1.008000
19213 ca 16727 TPS CA3 19213 -0.1548 12.010000
19214 ha 16727 TPS HA3 19214 0.1282 1.008000
19215 ha 16728 TPS HA2 19215 0.1332 1.008000
19216 ca 16728 TPS CA2 19216 -0.0753 12.010000
19217 ca 16728 TPS CA1 19217 -0.361 12.010000
19218 si 16728 TPS Si 19218 1.1 28.085000
19219 ca 16728 TPS CA6 19219 -0.0753 12.010000
19220 ha 16728 TPS HH6 19220 0.1332 1.008000
19221 ca 16728 TPS CA5 19221 -0.1548 12.010000
19222 ha 16728 TPS HA5 19222 0.1282 1.008000
19223 ca 16728 TPS CA4 19223 -0.1028 12.010000
19224 ha 16728 TPS HA4 19224 0.1262 1.008000
19225 ca 16728 TPS CA3 19225 -0.1548 12.010000
19226 ha 16728 TPS HA3 19226 0.1282 1.008000
19227 ha 16729 TPS HA2 19227 0.1332 1.008000
19228 ca 16729 TPS CA2 19228 -0.0753 12.010000
19229 ca 16729 TPS CA1 19229 -0.361 12.010000
19230 si 16729 TPS Si 19230 1.1 28.085000
19231 ca 16729 TPS CA6 19231 -0.0753 12.010000
19232 ha 16729 TPS HH6 19232 0.1332 1.008000
19233 ca 16729 TPS CA5 19233 -0.1548 12.010000
19234 ha 16729 TPS HA5 19234 0.1282 1.008000
19235 ca 16729 TPS CA4 19235 -0.1028 12.010000
19236 ha 16729 TPS HA4 19236 0.1262 1.008000
19237 ca 16729 TPS CA3 19237 -0.1548 12.010000
19238 ha 16729 TPS HA3 19238 0.1282 1.008000
19239 ha 16730 TPS HA2 19239 0.1332 1.008000
19240 ca 16730 TPS CA2 19240 -0.0753 12.010000
19241 ca 16730 TPS CA1 19241 -0.361 12.010000
19242 si 16730 TPS Si 19242 1.1 28.085000
19243 ca 16730 TPS CA6 19243 -0.0753 12.010000
19244 ha 16730 TPS HH6 19244 0.1332 1.008000
19245 ca 16730 TPS CA5 19245 -0.1548 12.010000
19246 ha 16730 TPS HA5 19246 0.1282 1.008000
19247 ca 16730 TPS CA4 19247 -0.1028 12.010000
19248 ha 16730 TPS HA4 19248 0.1262 1.008000
19249 ca 16730 TPS CA3 19249 -0.1548 12.010000
19250 ha 16730 TPS HA3 19250 0.1282 1.008000
19251 ha 16731 TPS HA2 19251 0.1332 1.008000
19252 ca 16731 TPS CA2 19252 -0.0753 12.010000
19253 ca 16731 TPS CA1 19253 -0.361 12.010000
19254 si 16731 TPS Si 19254 1.1 28.085000
19255 ca 16731 TPS CA6 19255 -0.0753 12.010000
19256 ha 16731 TPS HH6 19256 0.1332 1.008000
19257 ca 16731 TPS CA5 19257 -0.1548 12.010000
19258 ha 16731 TPS HA5 19258 0.1282 1.008000
19259 ca 16731 TPS CA4 19259 -0.1028 12.010000
19260 ha 16731 TPS HA4 19260 0.1262 1.008000
19261 ca 16731 TPS CA3 19261 -0.1548 12.010000
19262 ha 16731 TPS HA3 19262 0.1282 1.008000
19263 ha 16732 TPS HA2 19263 0.1332 1.008000
19264 ca 16732 TPS CA2 19264 -0.0753 12.010000
19265 ca 16732 TPS CA1 19265 -0.361 12.010000
19266 si 16732 TPS Si 19266 1.1 28.085000
19267 ca 16732 TPS CA6 19267 -0.0753 12.010000
19268 ha 16732 TPS HH6 19268 0.1332 1.008000
19269 ca 16732 TPS CA5 19269 -0.1548 12.010000
19270 ha 16732 TPS HA5 19270 0.1282 1.008000
19271 ca 16732 TPS CA4 19271 -0.1028 12.010000
19272 ha 16732 TPS HA4 19272 0.1262 1.008000
19273 ca 16732 TPS CA3 19273 -0.1548 12.010000
19274 ha 16732 TPS HA3 19274 0.1282 1.008000
19275 ha 16733 TPS HA2 19275 0.1332 1.008000
19276 ca 16733 TPS CA2 19276 -0.0753 12.010000
19277 ca 16733 TPS CA1 19277 -0.361 12.010000
19278 si 16733 TPS Si 19278 1.1 28.085000
19279 ca 16733 TPS CA6 19279 -0.0753 12.010000
19280 ha 16733 TPS HH6 19280 0.1332 1.008000
19281 ca 16733 TPS CA5 19281 -0.1548 12.010000
19282 ha 16733 TPS HA5 19282 0.1282 1.008000
19283 ca 16733 TPS CA4 19283 -0.1028 12.010000
19284 ha 16733 TPS HA4 19284 0.1262 1.008000
19285 ca 16733 TPS CA3 19285 -0.1548 12.010000
19286 ha 16733 TPS HA3 19286 0.1282 1.008000
19287 ha 16734 TPS HA2 19287 0.1332 1.008000
19288 ca 16734 TPS CA2 19288 -0.0753 12.010000
19289 ca 16734 TPS CA1 19289 -0.361 12.010000
19290 si 16734 TPS Si 19290 1.1 28.085000
19291 ca 16734 TPS CA6 19291 -0.0753 12.010000
19292 ha 16734 TPS HH6 19292 0.1332 1.008000
19293 ca 16734 TPS CA5 19293 -0.1548 12.010000
19294 ha 16734 TPS HA5 19294 0.1282 1.008000
19295 ca 16734 TPS CA4 19295 -0.1028 12.010000
19296 ha 16734 TPS HA4 19296 0.1262 1.008000
19297 ca 16734 TPS CA3 19297 -0.1548 12.010000
19298 ha 16734 TPS HA3 19298 0.1282 1.008000
19299 ha 16735 TPS HA2 19299 0.1332 1.008000
19300 ca 16735 TPS CA2 19300 -0.0753 12.010000
19301 ca 16735 TPS CA1 19301 -0.361 12.010000
19302 si 16735 TPS Si 19302 1.1 28.085000
19303 ca 16735 TPS CA6 19303 -0.0753 12.010000
19304 ha 16735 TPS HH6 19304 0.1332 1.008000
19305 ca 16735 TPS CA5 19305 -0.1548 12.010000
19306 ha 16735 TPS HA5 19306 0.1282 1.008000
19307 ca 16735 TPS CA4 19307 -0.1028 12.010000
19308 ha 16735 TPS HA4 19308 0.1262 1.008000
19309 ca 16735 TPS CA3 19309 -0.1548 12.010000
19310 ha 16735 TPS HA3 19310 0.1282 1.008000
19311 ha 16736 TPS HA2 19311 0.1332 1.008000
19312 ca 16736 TPS CA2 19312 -0.0753 12.010000
19313 ca 16736 TPS CA1 19313 -0.361 12.010000
19314 si 16736 TPS Si 19314 1.1 28.085000
19315 ca 16736 TPS CA6 19315 -0.0753 12.010000
19316 ha 16736 TPS HH6 19316 0.1332 1.008000
19317 ca 16736 TPS CA5 19317 -0.1548 12.010000
19318 ha 16736 TPS HA5 19318 0.1282 1.008000
19319 ca 16736 TPS CA4 19319 -0.1028 12.010000
19320 ha 16736 TPS HA4 19320 0.1262 1.008000
19321 ca 16736 TPS CA3 19321 -0.1548 12.010000
19322 ha 16736 TPS HA3 19322 0.1282 1.008000
19323 ha 16737 TPS HA2 19323 0.1332 1.008000
19324 ca 16737 TPS CA2 19324 -0.0753 12.010000
19325 ca 16737 TPS CA1 19325 -0.361 12.010000
19326 si 16737 TPS Si 19326 1.1 28.085000
19327 ca 16737 TPS CA6 19327 -0.0753 12.010000
19328 ha 16737 TPS HH6 19328 0.1332 1.008000
19329 ca 16737 TPS CA5 19329 -0.1548 12.010000
19330 ha 16737 TPS HA5 19330 0.1282 1.008000
19331 ca 16737 TPS CA4 19331 -0.1028 12.010000
19332 ha 16737 TPS HA4 19332 0.1262 1.008000
19333 ca 16737 TPS CA3 19333 -0.1548 12.010000
19334 ha 16737 TPS HA3 19334 0.1282 1.008000
19335 ha 16738 TPS HA2 19335 0.1332 1.008000
19336 ca 16738 TPS CA2 19336 -0.0753 12.010000
19337 ca 16738 TPS CA1 19337 -0.361 12.010000
19338 si 16738 TPS Si 19338 1.1 28.085000
19339 ca 16738 TPS CA6 19339 -0.0753 12.010000
19340 ha 16738 TPS HH6 19340 0.1332 1.008000
19341 ca 16738 TPS CA5 19341 -0.1548 12.010000
19342 ha 16738 TPS HA5 19342 0.1282 1.008000
19343 ca 16738 TPS CA4 19343 -0.1028 12.010000
19344 ha 16738 TPS HA4 19344 0.1262 1.008000
19345 ca 16738 TPS CA3 19345 -0.1548 12.010000
19346 ha 16738 TPS HA3 19346 0.1282 1.008000
19347 ha 16739 TPS HA2 19347 0.1332 1.008000
19348 ca 16739 TPS CA2 19348 -0.0753 12.010000
19349 ca 16739 TPS CA1 19349 -0.361 12.010000
19350 si 16739 TPS Si 19350 1.1 28.085000
19351 ca 16739 TPS CA6 19351 -0.0753 12.010000
19352 ha 16739 TPS HH6 19352 0.1332 1.008000
19353 ca 16739 TPS CA5 19353 -0.1548 12.010000
19354 ha 16739 TPS HA5 19354 0.1282 1.008000
19355 ca 16739 TPS CA4 19355 -0.1028 12.010000
19356 ha 16739 TPS HA4 19356 0.1262 1.008000
19357 ca 16739 TPS CA3 19357 -0.1548 12.010000
19358 ha 16739 TPS HA3 19358 0.1282 1.008000
19359 ha 16740 TPS HA2 19359 0.1332 1.008000
19360 ca 16740 TPS CA2 19360 -0.0753 12.010000
19361 ca 16740 TPS CA1 19361 -0.361 12.010000
19362 si 16740 TPS Si 19362 1.1 28.085000
19363 ca 16740 TPS CA6 19363 -0.0753 12.010000
19364 ha 16740 TPS HH6 19364 0.1332 1.008000
19365 ca 16740 TPS CA5 19365 -0.1548 12.010000
19366 ha 16740 TPS HA5 19366 0.1282 1.008000
19367 ca 16740 TPS CA4 19367 -0.1028 12.010000
19368 ha 16740 TPS HA4 19368 0.1262 1.008000
19369 ca 16740 TPS CA3 19369 -0.1548 12.010000
19370 ha 16740 TPS HA3 19370 0.1282 1.008000
19371 ha 16741 TPS HA2 19371 0.1332 1.008000
19372 ca 16741 TPS CA2 19372 -0.0753 12.010000
19373 ca 16741 TPS CA1 19373 -0.361 12.010000
19374 si 16741 TPS Si 19374 1.1 28.085000
19375 ca 16741 TPS CA6 19375 -0.0753 12.010000
19376 ha 16741 TPS HH6 19376 0.1332 1.008000
19377 ca 16741 TPS CA5 19377 -0.1548 12.010000
19378 ha 16741 TPS HA5 19378 0.1282 1.008000
19379 ca 16741 TPS CA4 19379 -0.1028 12.010000
19380 ha 16741 TPS HA4 19380 0.1262 1.008000
19381 ca 16741 TPS CA3 19381 -0.1548 12.010000
19382 ha 16741 TPS HA3 19382 0.1282 1.008000
19383 ha 16742 TPS HA2 19383 0.1332 1.008000
19384 ca 16742 TPS CA2 19384 -0.0753 12.010000
19385 ca 16742 TPS CA1 19385 -0.361 12.010000
19386 si 16742 TPS Si 19386 1.1 28.085000
19387 ca 16742 TPS CA6 19387 -0.0753 12.010000
19388 ha 16742 TPS HH6 19388 0.1332 1.008000
19389 ca 16742 TPS CA5 19389 -0.1548 12.010000
19390 ha 16742 TPS HA5 19390 0.1282 1.008000
19391 ca 16742 TPS CA4 19391 -0.1028 12.010000
19392 ha 16742 TPS HA4 19392 0.1262 1.008000
19393 ca 16742 TPS CA3 19393 -0.1548 12.010000
19394 ha 16742 TPS HA3 19394 0.1282 1.008000
19395 ha 16743 TPS HA2 19395 0.1332 1.008000
19396 ca 16743 TPS CA2 19396 -0.0753 12.010000
19397 ca 16743 TPS CA1 19397 -0.361 12.010000
19398 si 16743 TPS Si 19398 1.1 28.085000
19399 ca 16743 TPS CA6 19399 -0.0753 12.010000
19400 ha 16743 TPS HH6 19400 0.1332 1.008000
19401 ca 16743 TPS CA5 19401 -0.1548 12.010000
19402 ha 16743 TPS HA5 19402 0.1282 1.008000
19403 ca 16743 TPS CA4 19403 -0.1028 12.010000
19404 ha 16743 TPS HA4 19404 0.1262 1.008000
19405 ca 16743 TPS CA3 19405 -0.1548 12.010000
19406 ha 16743 TPS HA3 19406 0.1282 1.008000
19407 ha 16744 TPS HA2 19407 0.1332 1.008000
19408 ca 16744 TPS CA2 19408 -0.0753 12.010000
19409 ca 16744 TPS CA1 19409 -0.361 12.010000
19410 si 16744 TPS Si 19410 1.1 28.085000
19411 ca 16744 TPS CA6 19411 -0.0753 12.010000
19412 ha 16744 TPS HH6 19412 0.1332 1.008000
19413 ca 16744 TPS CA5 19413 -0.1548 12.010000
19414 ha 16744 TPS HA5 19414 0.1282 1.008000
19415 ca 16744 TPS CA4 19415 -0.1028 12.010000
19416 ha 16744 TPS HA4 19416 0.1262 1.008000
19417 ca 16744 TPS CA3 19417 -0.1548 12.010000
19418 ha 16744 TPS HA3 19418 0.1282 1.008000
19419 ha 16745 TPS HA2 19419 0.1332 1.008000
19420 ca 16745 TPS CA2 19420 -0.0753 12.010000
19421 ca 16745 TPS CA1 19421 -0.361 12.010000
19422 si 16745 TPS Si 19422 1.1 28.085000
19423 ca 16745 TPS CA6 19423 -0.0753 12.010000
19424 ha 16745 TPS HH6 19424 0.1332 1.008000
19425 ca 16745 TPS CA5 19425 -0.1548 12.010000
19426 ha 16745 TPS HA5 19426 0.1282 1.008000
19427 ca 16745 TPS CA4 19427 -0.1028 12.010000
19428 ha 16745 TPS HA4 19428 0.1262 1.008000
19429 ca 16745 TPS CA3 19429 -0.1548 12.010000
19430 ha 16745 TPS HA3 19430 0.1282 1.008000
19431 ha 16746 TPS HA2 19431 0.1332 1.008000
19432 ca 16746 TPS CA2 19432 -0.0753 12.010000
19433 ca 16746 TPS CA1 19433 -0.361 12.010000
19434 si 16746 TPS Si 19434 1.1 28.085000
19435 ca 16746 TPS CA6 19435 -0.0753 12.010000
19436 ha 16746 TPS HH6 19436 0.1332 1.008000
19437 ca 16746 TPS CA5 19437 -0.1548 12.010000
19438 ha 16746 TPS HA5 19438 0.1282 1.008000
19439 ca 16746 TPS CA4 19439 -0.1028 12.010000
19440 ha 16746 TPS HA4 19440 0.1262 1.008000
19441 ca 16746 TPS CA3 19441 -0.1548 12.010000
19442 ha 16746 TPS HA3 19442 0.1282 1.008000
19443 ha 16747 TPS HA2 19443 0.1332 1.008000
19444 ca 16747 TPS CA2 19444 -0.0753 12.010000
19445 ca 16747 TPS CA1 19445 -0.361 12.010000
19446 si 16747 TPS Si 19446 1.1 28.085000
19447 ca 16747 TPS CA6 19447 -0.0753 12.010000
19448 ha 16747 TPS HH6 19448 0.1332 1.008000
19449 ca 16747 TPS CA5 19449 -0.1548 12.010000
19450 ha 16747 TPS HA5 19450 0.1282 1.008000
19451 ca 16747 TPS CA4 19451 -0.1028 12.010000
19452 ha 16747 TPS HA4 19452 0.1262 1.008000
19453 ca 16747 TPS CA3 19453 -0.1548 12.010000
19454 ha 16747 TPS HA3 19454 0.1282 1.008000
19455 ha 16748 TPS HA2 19455 0.1332 1.008000
19456 ca 16748 TPS CA2 19456 -0.0753 12.010000
19457 ca 16748 TPS CA1 19457 -0.361 12.010000
19458 si 16748 TPS Si 19458 1.1 28.085000
19459 ca 16748 TPS CA6 19459 -0.0753 12.010000
19460 ha 16748 TPS HH6 19460 0.1332 1.008000
19461 ca 16748 TPS CA5 19461 -0.1548 12.010000
19462 ha 16748 TPS HA5 19462 0.1282 1.008000
19463 ca 16748 TPS CA4 19463 -0.1028 12.010000
19464 ha 16748 TPS HA4 19464 0.1262 1.008000
19465 ca 16748 TPS CA3 19465 -0.1548 12.010000
19466 ha 16748 TPS HA3 19466 0.1282 1.008000
19467 ha 16749 TPS HA2 19467 0.1332 1.008000
19468 ca 16749 TPS CA2 19468 -0.0753 12.010000
19469 ca 16749 TPS CA1 19469 -0.361 12.010000
19470 si 16749 TPS Si 19470 1.1 28.085000
19471 ca 16749 TPS CA6 19471 -0.0753 12.010000
19472 ha 16749 TPS HH6 19472 0.1332 1.008000
19473 ca 16749 TPS CA5 19473 -0.1548 12.010000
19474 ha 16749 TPS HA5 19474 0.1282 1.008000
19475 ca 16749 TPS CA4 19475 -0.1028 12.010000
19476 ha 16749 TPS HA4 19476 0.1262 1.008000
19477 ca 16749 TPS CA3 19477 -0.1548 12.010000
19478 ha 16749 TPS HA3 19478 0.1282 1.008000
19479 ha 16750 TPS HA2 19479 0.1332 1.008000
19480 ca 16750 TPS CA2 19480 -0.0753 12.010000
19481 ca 16750 TPS CA1 19481 -0.361 12.010000
19482 si 16750 TPS Si 19482 1.1 28.085000
19483 ca 16750 TPS CA6 19483 -0.0753 12.010000
19484 ha 16750 TPS HH6 19484 0.1332 1.008000
19485 ca 16750 TPS CA5 19485 -0.1548 12.010000
19486 ha 16750 TPS HA5 19486 0.1282 1.008000
19487 ca 16750 TPS CA4 19487 -0.1028 12.010000
19488 ha 16750 TPS HA4 19488 0.1262 1.008000
19489 ca 16750 TPS CA3 19489 -0.1548 12.010000
19490 ha 16750 TPS HA3 19490 0.1282 1.008000
19491 ha 16751 TPS HA2 19491 0.1332 1.008000
19492 ca 16751 TPS CA2 19492 -0.0753 12.010000
19493 ca 16751 TPS CA1 19493 -0.361 12.010000
19494 si 16751 TPS Si 19494 1.1 28.085000
19495 ca 16751 TPS CA6 19495 -0.0753 12.010000
19496 ha 16751 TPS HH6 19496 0.1332 1.008000
19497 ca 16751 TPS CA5 19497 -0.1548 12.010000
19498 ha 16751 TPS HA5 19498 0.1282 1.008000
19499 ca 16751 TPS CA4 19499 -0.1028 12.010000
19500 ha 16751 TPS HA4 19500 0.1262 1.008000
19501 ca 16751 TPS CA3 19501 -0.1548 12.010000
19502 ha 16751 TPS HA3 19502 0.1282 1.008000
19503 ha 16752 TPS HA2 19503 0.1332 1.008000
19504 ca 16752 TPS CA2 19504 -0.0753 12.010000
19505 ca 16752 TPS CA1 19505 -0.361 12.010000
19506 si 16752 TPS Si 19506 1.1 28.085000
19507 ca 16752 TPS CA6 19507 -0.0753 12.010000
19508 ha 16752 TPS HH6 19508 0.1332 1.008000
19509 ca 16752 TPS CA5 19509 -0.1548 12.010000
19510 ha 16752 TPS HA5 19510 0.1282 1.008000
19511 ca 16752 TPS CA4 19511 -0.1028 12.010000
19512 ha 16752 TPS HA4 19512 0.1262 1.008000
19513 ca 16752 TPS CA3 19513 -0.1548 12.010000
19514 ha 16752 TPS HA3 19514 0.1282 1.008000
19515 ha 16753 TPS HA2 19515 0.1332 1.008000
19516 ca 16753 TPS CA2 19516 -0.0753 12.010000
19517 ca 16753 TPS CA1 19517 -0.361 12.010000
19518 si 16753 TPS Si 19518 1.1 28.085000
19519 ca 16753 TPS CA6 19519 -0.0753 12.010000
19520 ha 16753 TPS HH6 19520 0.1332 1.008000
19521 ca 16753 TPS CA5 19521 -0.1548 12.010000
19522 ha 16753 TPS HA5 19522 0.1282 1.008000
19523 ca 16753 TPS CA4 19523 -0.1028 12.010000
19524 ha 16753 TPS HA4 19524 0.1262 1.008000
19525 ca 16753 TPS CA3 19525 -0.1548 12.010000
19526 ha 16753 TPS HA3 19526 0.1282 1.008000
19527 ha 16754 TPS HA2 19527 0.1332 1.008000
19528 ca 16754 TPS CA2 19528 -0.0753 12.010000
19529 ca 16754 TPS CA1 19529 -0.361 12.010000
19530 si 16754 TPS Si 19530 1.1 28.085000
19531 ca 16754 TPS CA6 19531 -0.0753 12.010000
19532 ha 16754 TPS HH6 19532 0.1332 1.008000
19533 ca 16754 TPS CA5 19533 -0.1548 12.010000
19534 ha 16754 TPS HA5 19534 0.1282 1.008000
19535 ca 16754 TPS CA4 19535 -0.1028 12.010000
19536 ha 16754 TPS HA4 19536 0.1262 1.008000
19537 ca 16754 TPS CA3 19537 -0.1548 12.010000
19538 ha 16754 TPS HA3 19538 0.1282 1.008000
19539 ha 16755 TPS HA2 19539 0.1332 1.008000
19540 ca 16755 TPS CA2 19540 -0.0753 12.010000
19541 ca 16755 TPS CA1 19541 -0.361 12.010000
19542 si 16755 TPS Si 19542 1.1 28.085000
19543 ca 16755 TPS CA6 19543 -0.0753 12.010000
19544 ha 16755 TPS HH6 19544 0.1332 1.008000
19545 ca 16755 TPS CA5 19545 -0.1548 12.010000
19546 ha 16755 TPS HA5 19546 0.1282 1.008000
19547 ca 16755 TPS CA4 19547 -0.1028 12.010000
19548 ha 16755 TPS HA4 19548 0.1262 1.008000
19549 ca 16755 TPS CA3 19549 -0.1548 12.010000
19550 ha 16755 TPS HA3 19550 0.1282 1.008000
19551 ha 16756 TPS HA2 19551 0.1332 1.008000
19552 ca 16756 TPS CA2 19552 -0.0753 12.010000
19553 ca 16756 TPS CA1 19553 -0.361 12.010000
19554 si 16756 TPS Si 19554 1.1 28.085000
19555 ca 16756 TPS CA6 19555 -0.0753 12.010000
19556 ha 16756 TPS HH6 19556 0.1332 1.008000
19557 ca 16756 TPS CA5 19557 -0.1548 12.010000
19558 ha 16756 TPS HA5 19558 0.1282 1.008000
19559 ca 16756 TPS CA4 19559 -0.1028 12.010000
19560 ha 16756 TPS HA4 19560 0.1262 1.008000
19561 ca 16756 TPS CA3 19561 -0.1548 12.010000
19562 ha 16756 TPS HA3 19562 0.1282 1.008000
19563 ha 16757 TPS HA2 19563 0.1332 1.008000
19564 ca 16757 TPS CA2 19564 -0.0753 12.010000
19565 ca 16757 TPS CA1 19565 -0.361 12.010000
19566 si 16757 TPS Si 19566 1.1 28.085000
19567 ca 16757 TPS CA6 19567 -0.0753 12.010000
19568 ha 16757 TPS HH6 19568 0.1332 1.008000
19569 ca 16757 TPS CA5 19569 -0.1548 12.010000
19570 ha 16757 TPS HA5 19570 0.1282 1.008000
19571 ca 16757 TPS CA4 19571 -0.1028 12.010000
19572 ha 16757 TPS HA4 19572 0.1262 1.008000
19573 ca 16757 TPS CA3 19573 -0.1548 12.010000
19574 ha 16757 TPS HA3 19574 0.1282 1.008000
19575 ha 16758 TPS HA2 19575 0.1332 1.008000
19576 ca 16758 TPS CA2 19576 -0.0753 12.010000
19577 ca 16758 TPS CA1 19577 -0.361 12.010000
19578 si 16758 TPS Si 19578 1.1 28.085000
19579 ca 16758 TPS CA6 19579 -0.0753 12.010000
19580 ha 16758 TPS HH6 19580 0.1332 1.008000
19581 ca 16758 TPS CA5 19581 -0.1548 12.010000
19582 ha 16758 TPS HA5 19582 0.1282 1.008000
19583 ca 16758 TPS CA4 19583 -0.1028 12.010000
19584 ha 16758 TPS HA4 19584 0.1262 1.008000
19585 ca 16758 TPS CA3 19585 -0.1548 12.010000
19586 ha 16758 TPS HA3 19586 0.1282 1.008000
19587 ha 16759 TPS HA2 19587 0.1332 1.008000
19588 ca 16759 TPS CA2 19588 -0.0753 12.010000
19589 ca 16759 TPS CA1 19589 -0.361 12.010000
19590 si 16759 TPS Si 19590 1.1 28.085000
19591 ca 16759 TPS CA6 19591 -0.0753 12.010000
19592 ha 16759 TPS HH6 19592 0.1332 1.008000
19593 ca 16759 TPS CA5 19593 -0.1548 12.010000
19594 ha 16759 TPS HA5 19594 0.1282 1.008000
19595 ca 16759 TPS CA4 19595 -0.1028 12.010000
19596 ha 16759 TPS HA4 19596 0.1262 1.008000
19597 ca 16759 TPS CA3 19597 -0.1548 12.010000
19598 ha 16759 TPS HA3 19598 0.1282 1.008000
19599 ha 16760 TPS HA2 19599 0.1332 1.008000
19600 ca 16760 TPS CA2 19600 -0.0753 12.010000
19601 ca 16760 TPS CA1 19601 -0.361 12.010000
19602 si 16760 TPS Si 19602 1.1 28.085000
19603 ca 16760 TPS CA6 19603 -0.0753 12.010000
19604 ha 16760 TPS HH6 19604 0.1332 1.008000
19605 ca 16760 TPS CA5 19605 -0.1548 12.010000
19606 ha 16760 TPS HA5 19606 0.1282 1.008000
19607 ca 16760 TPS CA4 19607 -0.1028 12.010000
19608 ha 16760 TPS HA4 19608 0.1262 1.008000
19609 ca 16760 TPS CA3 19609 -0.1548 12.010000
19610 ha 16760 TPS HA3 19610 0.1282 1.008000
19611 ha 16761 TPS HA2 19611 0.1332 1.008000
19612 ca 16761 TPS CA2 19612 -0.0753 12.010000
19613 ca 16761 TPS CA1 19613 -0.361 12.010000
19614 si 16761 TPS Si 19614 1.1 28.085000
19615 ca 16761 TPS CA6 19615 -0.0753 12.010000
19616 ha 16761 TPS HH6 19616 0.1332 1.008000
19617 ca 16761 TPS CA5 19617 -0.1548 12.010000
19618 ha 16761 TPS HA5 19618 0.1282 1.008000
19619 ca 16761 TPS CA4 19619 -0.1028 12.010000
19620 ha 16761 TPS HA4 19620 0.1262 1.008000
19621 ca 16761 TPS CA3 19621 -0.1548 12.010000
19622 ha 16761 TPS HA3 19622 0.1282 1.008000
19623 ha 16762 TPS HA2 19623 0.1332 1.008000
19624 ca 16762 TPS CA2 19624 -0.0753 12.010000
19625 ca 16762 TPS CA1 19625 -0.361 12.010000
19626 si 16762 TPS Si 19626 1.1 28.085000
19627 ca 16762 TPS CA6 19627 -0.0753 12.010000
19628 ha 16762 TPS HH6 19628 0.1332 1.008000
19629 ca 16762 TPS CA5 19629 -0.1548 12.010000
19630 ha 16762 TPS HA5 19630 0.1282 1.008000
19631 ca 16762 TPS CA4 19631 -0.1028 12.010000
19632 ha 16762 TPS HA4 19632 0.1262 1.008000
19633 ca 16762 TPS CA3 19633 -0.1548 12.010000
19634 ha 16762 TPS HA3 19634 0.1282 1.008000
19635 ha 16763 TPS HA2 19635 0.1332 1.008000
19636 ca 16763 TPS CA2 19636 -0.0753 12.010000
19637 ca 16763 TPS CA1 19637 -0.361 12.010000
19638 si 16763 TPS Si 19638 1.1 28.085000
19639 ca 16763 TPS CA6 19639 -0.0753 12.010000
19640 ha 16763 TPS HH6 19640 0.1332 1.008000
19641 ca 16763 TPS CA5 19641 -0.1548 12.010000
19642 ha 16763 TPS HA5 19642 0.1282 1.008000
19643 ca 16763 TPS CA4 19643 -0.1028 12.010000
19644 ha 16763 TPS HA4 19644 0.1262 1.008000
19645 ca 16763 TPS CA3 19645 -0.1548 12.010000
19646 ha 16763 TPS HA3 19646 0.1282 1.008000
19647 ha 16764 TPS HA2 19647 0.1332 1.008000
19648 ca 16764 TPS CA2 19648 -0.0753 12.010000
19649 ca 16764 TPS CA1 19649 -0.361 12.010000
19650 si 16764 TPS Si 19650 1.1 28.085000
19651 ca 16764 TPS CA6 19651 -0.0753 12.010000
19652 ha 16764 TPS HH6 19652 0.1332 1.008000
19653 ca 16764 TPS CA5 19653 -0.1548 12.010000
19654 ha 16764 TPS HA5 19654 0.1282 1.008000
19655 ca 16764 TPS CA4 19655 -0.1028 12.010000
19656 ha 16764 TPS HA4 19656 0.1262 1.008000
19657 ca 16764 TPS CA3 19657 -0.1548 12.010000
19658 ha 16764 TPS HA3 19658 0.1282 1.008000
19659 ha 16765 TPS HA2 19659 0.1332 1.008000
19660 ca 16765 TPS CA2 19660 -0.0753 12.010000
19661 ca 16765 TPS CA1 19661 -0.361 12.010000
19662 si 16765 TPS Si 19662 1.1 28.085000
19663 ca 16765 TPS CA6 19663 -0.0753 12.010000
19664 ha 16765 TPS HH6 19664 0.1332 1.008000
19665 ca 16765 TPS CA5 19665 -0.1548 12.010000
19666 ha 16765 TPS HA5 19666 0.1282 1.008000
19667 ca 16765 TPS CA4 19667 -0.1028 12.010000
19668 ha 16765 TPS HA4 19668 0.1262 1.008000
19669 ca 16765 TPS CA3 19669 -0.1548 12.010000
19670 ha 16765 TPS HA3 19670 0.1282 1.008000
19671 ha 16766 TPS HA2 19671 0.1332 1.008000
19672 ca 16766 TPS CA2 19672 -0.0753 12.010000
19673 ca 16766 TPS CA1 19673 -0.361 12.010000
19674 si 16766 TPS Si 19674 1.1 28.085000
19675 ca 16766 TPS CA6 19675 -0.0753 12.010000
19676 ha 16766 TPS HH6 19676 0.1332 1.008000
19677 ca 16766 TPS CA5 19677 -0.1548 12.010000
19678 ha 16766 TPS HA5 19678 0.1282 1.008000
19679 ca 16766 TPS CA4 19679 -0.1028 12.010000
19680 ha 16766 TPS HA4 19680 0.1262 1.008000
19681 ca 16766 TPS CA3 19681 -0.1548 12.010000
19682 ha 16766 TPS HA3 19682 0.1282 1.008000
19683 ha 16767 TPS HA2 19683 0.1332 1.008000
19684 ca 16767 TPS CA2 19684 -0.0753 12.010000
19685 ca 16767 TPS CA1 19685 -0.361 12.010000
19686 si 16767 TPS Si 19686 1.1 28.085000
19687 ca 16767 TPS CA6 19687 -0.0753 12.010000
19688 ha 16767 TPS HH6 19688 0.1332 1.008000
19689 ca 16767 TPS CA5 19689 -0.1548 12.010000
19690 ha 16767 TPS HA5 19690 0.1282 1.008000
19691 ca 16767 TPS CA4 19691 -0.1028 12.010000
19692 ha 16767 TPS HA4 19692 0.1262 1.008000
19693 ca 16767 TPS CA3 19693 -0.1548 12.010000
19694 ha 16767 TPS HA3 19694 0.1282 1.008000
19695 ha 16768 TPS HA2 19695 0.1332 1.008000
19696 ca 16768 TPS CA2 19696 -0.0753 12.010000
19697 ca 16768 TPS CA1 19697 -0.361 12.010000
19698 si 16768 TPS Si 19698 1.1 28.085000
19699 ca 16768 TPS CA6 19699 -0.0753 12.010000
19700 ha 16768 TPS HH6 19700 0.1332 1.008000
19701 ca 16768 TPS CA5 19701 -0.1548 12.010000
19702 ha 16768 TPS HA5 19702 0.1282 1.008000
19703 ca 16768 TPS CA4 19703 -0.1028 12.010000
19704 ha 16768 TPS HA4 19704 0.1262 1.008000
19705 ca 16768 TPS CA3 19705 -0.1548 12.010000
19706 ha 16768 TPS HA3 19706 0.1282 1.008000
19707 ha 16769 TPS HA2 19707 0.1332 1.008000
19708 ca 16769 TPS CA2 19708 -0.0753 12.010000
19709 ca 16769 TPS CA1 19709 -0.361 12.010000
19710 si 16769 TPS Si 19710 1.1 28.085000
19711 ca 16769 TPS CA6 19711 -0.0753 12.010000
19712 ha 16769 TPS HH6 19712 0.1332 1.008000
19713 ca 16769 TPS CA5 19713 -0.1548 12.010000
19714 ha 16769 TPS HA5 19714 0.1282 1.008000
19715 ca 16769 TPS CA4 19715 -0.1028 12.010000
19716 ha 16769 TPS HA4 19716 0.1262 1.008000
19717 ca 16769 TPS CA3 19717 -0.1548 12.010000
19718 ha 16769 TPS HA3 19718 0.1282 1.008000
19719 ha 16770 TPS HA2 19719 0.1332 1.008000
19720 ca 16770 TPS CA2 19720 -0.0753 12.010000
19721 ca 16770 TPS CA1 19721 -0.361 12.010000
19722 si 16770 TPS Si 19722 1.1 28.085000
19723 ca 16770 TPS CA6 19723 -0.0753 12.010000
19724 ha 16770 TPS HH6 19724 0.1332 1.008000
19725 ca 16770 TPS CA5 19725 -0.1548 12.010000
19726 ha 16770 TPS HA5 19726 0.1282 1.008000
19727 ca 16770 TPS CA4 19727 -0.1028 12.010000
19728 ha 16770 TPS HA4 19728 0.1262 1.008000
19729 ca 16770 TPS CA3 19729 -0.1548 12.010000
19730 ha 16770 TPS HA3 19730 0.1282 1.008000
19731 ha 16771 TPS HA2 19731 0.1332 1.008000
19732 ca 16771 TPS CA2 19732 -0.0753 12.010000
19733 ca 16771 TPS CA1 19733 -0.361 12.010000
19734 si 16771 TPS Si 19734 1.1 28.085000
19735 ca 16771 TPS CA6 19735 -0.0753 12.010000
19736 ha 16771 TPS HH6 19736 0.1332 1.008000
19737 ca 16771 TPS CA5 19737 -0.1548 12.010000
19738 ha 16771 TPS HA5 19738 0.1282 1.008000
19739 ca 16771 TPS CA4 19739 -0.1028 12.010000
19740 ha 16771 TPS HA4 19740 0.1262 1.008000
19741 ca 16771 TPS CA3 19741 -0.1548 12.010000
19742 ha 16771 TPS HA3 19742 0.1282 1.008000
19743 ha 16772 TPS HA2 19743 0.1332 1.008000
19744 ca 16772 TPS CA2 19744 -0.0753 12.010000
19745 ca 16772 TPS CA1 19745 -0.361 12.010000
19746 si 16772 TPS Si 19746 1.1 28.085000
19747 ca 16772 TPS CA6 19747 -0.0753 12.010000
19748 ha 16772 TPS HH6 19748 0.1332 1.008000
19749 ca 16772 TPS CA5 19749 -0.1548 12.010000
19750 ha 16772 TPS HA5 19750 0.1282 1.008000
19751 ca 16772 TPS CA4 19751 -0.1028 12.010000
19752 ha 16772 TPS HA4 19752 0.1262 1.008000
19753 ca 16772 TPS CA3 19753 -0.1548 12.010000
19754 ha 16772 TPS HA3 19754 0.1282 1.008000
19755 ha 16773 TPS HA2 19755 0.1332 1.008000
19756 ca 16773 TPS CA2 19756 -0.0753 12.010000
19757 ca 16773 TPS CA1 19757 -0.361 12.010000
19758 si 16773 TPS Si 19758 1.1 28.085000
19759 ca 16773 TPS CA6 19759 -0.0753 12.010000
19760 ha 16773 TPS HH6 19760 0.1332 1.008000
19761 ca 16773 TPS CA5 19761 -0.1548 12.010000
19762 ha 16773 TPS HA5 19762 0.1282 1.008000
19763 ca 16773 TPS CA4 19763 -0.1028 12.010000
19764 ha 16773 TPS HA4 19764 0.1262 1.008000
19765 ca 16773 TPS CA3 19765 -0.1548 12.010000
19766 ha 16773 TPS HA3 19766 0.1282 1.008000
19767 ha 16774 TPS HA2 19767 0.1332 1.008000
19768 ca 16774 TPS CA2 19768 -0.0753 12.010000
19769 ca 16774 TPS CA1 19769 -0.361 12.010000
19770 si 16774 TPS Si 19770 1.1 28.085000
19771 ca 16774 TPS CA6 19771 -0.0753 12.010000
19772 ha 16774 TPS HH6 19772 0.1332 1.008000
19773 ca 16774 TPS CA5 19773 -0.1548 12.010000
19774 ha 16774 TPS HA5 19774 0.1282 1.008000
19775 ca 16774 TPS CA4 19775 -0.1028 12.010000
19776 ha 16774 TPS HA4 19776 0.1262 1.008000
19777 ca 16774 TPS CA3 19777 -0.1548 12.010000
19778 ha 16774 TPS HA3 19778 0.1282 1.008000
19779 ha 16775 TPS HA2 19779 0.1332 1.008000
19780 ca 16775 TPS CA2 19780 -0.0753 12.010000
19781 ca 16775 TPS CA1 19781 -0.361 12.010000
19782 si 16775 TPS Si 19782 1.1 28.085000
19783 ca 16775 TPS CA6 19783 -0.0753 12.010000
19784 ha 16775 TPS HH6 19784 0.1332 1.008000
19785 ca 16775 TPS CA5 19785 -0.1548 12.010000
19786 ha 16775 TPS HA5 19786 0.1282 1.008000
19787 ca 16775 TPS CA4 19787 -0.1028 12.010000
19788 ha 16775 TPS HA4 19788 0.1262 1.008000
19789 ca 16775 TPS CA3 19789 -0.1548 12.010000
19790 ha 16775 TPS HA3 19790 0.1282 1.008000
19791 ha 16776 TPS HA2 19791 0.1332 1.008000
19792 ca 16776 TPS CA2 19792 -0.0753 12.010000
19793 ca 16776 TPS CA1 19793 -0.361 12.010000
19794 si 16776 TPS Si 19794 1.1 28.085000
19795 ca 16776 TPS CA6 19795 -0.0753 12.010000
19796 ha 16776 TPS HH6 19796 0.1332 1.008000
19797 ca 16776 TPS CA5 19797 -0.1548 12.010000
19798 ha 16776 TPS HA5 19798 0.1282 1.008000
19799 ca 16776 TPS CA4 19799 -0.1028 12.010000
19800 ha 16776 TPS HA4 19800 0.1262 1.008000
19801 ca 16776 TPS CA3 19801 -0.1548 12.010000
19802 ha 16776 TPS HA3 19802 0.1282 1.008000
19803 ha 16777 TPS HA2 19803 0.1332 1.008000
19804 ca 16777 TPS CA2 19804 -0.0753 12.010000
19805 ca 16777 TPS CA1 19805 -0.361 12.010000
19806 si 16777 TPS Si 19806 1.1 28.085000
19807 ca 16777 TPS CA6 19807 -0.0753 12.010000
19808 ha 16777 TPS HH6 19808 0.1332 1.008000
19809 ca 16777 TPS CA5 19809 -0.1548 12.010000
19810 ha 16777 TPS HA5 19810 0.1282 1.008000
19811 ca 16777 TPS CA4 19811 -0.1028 12.010000
19812 ha 16777 TPS HA4 19812 0.1262 1.008000
19813 ca 16777 TPS CA3 19813 -0.1548 12.010000
19814 ha 16777 TPS HA3 19814 0.1282 1.008000
19815 ha 16778 TPS HA2 19815 0.1332 1.008000
19816 ca 16778 TPS CA2 19816 -0.0753 12.010000
19817 ca 16778 TPS CA1 19817 -0.361 12.010000
19818 si 16778 TPS Si 19818 1.1 28.085000
19819 ca 16778 TPS CA6 19819 -0.0753 12.010000
19820 ha 16778 TPS HH6 19820 0.1332 1.008000
19821 ca 16778 TPS CA5 19821 -0.1548 12.010000
19822 ha 16778 TPS HA5 19822 0.1282 1.008000
19823 ca 16778 TPS CA4 19823 -0.1028 12.010000
19824 ha 16778 TPS HA4 19824 0.1262 1.008000
19825 ca 16778 TPS CA3 19825 -0.1548 12.010000
19826 ha 16778 TPS HA3 19826 0.1282 1.008000
19827 ha 16779 TPS HA2 19827 0.1332 1.008000
19828 ca 16779 TPS CA2 19828 -0.0753 12.010000
19829 ca 16779 TPS CA1 19829 -0.361 12.010000
19830 si 16779 TPS Si 19830 1.1 28.085000
19831 ca 16779 TPS CA6 19831 -0.0753 12.010000
19832 ha 16779 TPS HH6 19832 0.1332 1.008000
19833 ca 16779 TPS CA5 19833 -0.1548 12.010000
19834 ha 16779 TPS HA5 19834 0.1282 1.008000
19835 ca 16779 TPS CA4 19835 -0.1028 12.010000
19836 ha 16779 TPS HA4 19836 0.1262 1.008000
19837 ca 16779 TPS CA3 19837 -0.1548 12.010000
19838 ha 16779 TPS HA3 19838 0.1282 1.008000
19839 ha 16780 TPS HA2 19839 0.1332 1.008000
19840 ca 16780 TPS CA2 19840 -0.0753 12.010000
19841 ca 16780 TPS CA1 19841 -0.361 12.010000
19842 si 16780 TPS Si 19842 1.1 28.085000
19843 ca 16780 TPS CA6 19843 -0.0753 12.010000
19844 ha 16780 TPS HH6 19844 0.1332 1.008000
19845 ca 16780 TPS CA5 19845 -0.1548 12.010000
19846 ha 16780 TPS HA5 19846 0.1282 1.008000
19847 ca 16780 TPS CA4 19847 -0.1028 12.010000
19848 ha 16780 TPS HA4 19848 0.1262 1.008000
19849 ca 16780 TPS CA3 19849 -0.1548 12.010000
19850 ha 16780 TPS HA3 19850 0.1282 1.008000
19851 ha 16781 TPS HA2 19851 0.1332 1.008000
19852 ca 16781 TPS CA2 19852 -0.0753 12.010000
19853 ca 16781 TPS CA1 19853 -0.361 12.010000
19854 si 16781 TPS Si 19854 1.1 28.085000
19855 ca 16781 TPS CA6 19855 -0.0753 12.010000
19856 ha 16781 TPS HH6 19856 0.1332 1.008000
19857 ca 16781 TPS CA5 19857 -0.1548 12.010000
19858 ha 16781 TPS HA5 19858 0.1282 1.008000
19859 ca 16781 TPS CA4 19859 -0.1028 12.010000
19860 ha 16781 TPS HA4 19860 0.1262 1.008000
19861 ca 16781 TPS CA3 19861 -0.1548 12.010000
19862 ha 16781 TPS HA3 19862 0.1282 1.008000
19863 ha 16782 TPS HA2 19863 0.1332 1.008000
19864 ca 16782 TPS CA2 19864 -0.0753 12.010000
19865 ca 16782 TPS CA1 19865 -0.361 12.010000
19866 si 16782 TPS Si 19866 1.1 28.085000
19867 ca 16782 TPS CA6 19867 -0.0753 12.010000
19868 ha 16782 TPS HH6 19868 0.1332 1.008000
19869 ca 16782 TPS CA5 19869 -0.1548 12.010000
19870 ha 16782 TPS HA5 19870 0.1282 1.008000
19871 ca 16782 TPS CA4 19871 -0.1028 12.010000
19872 ha 16782 TPS HA4 19872 0.1262 1.008000
19873 ca 16782 TPS CA3 19873 -0.1548 12.010000
19874 ha 16782 TPS HA3 19874 0.1282 1.008000
19875 ha 16783 TPS HA2 19875 0.1332 1.008000
19876 ca 16783 TPS CA2 19876 -0.0753 12.010000
19877 ca 16783 TPS CA1 19877 -0.361 12.010000
19878 si 16783 TPS Si 19878 1.1 28.085000
19879 ca 16783 TPS CA6 19879 -0.0753 12.010000
19880 ha 16783 TPS HH6 19880 0.1332 1.008000
19881 ca 16783 TPS CA5 19881 -0.1548 12.010000
19882 ha 16783 TPS HA5 19882 0.1282 1.008000
19883 ca 16783 TPS CA4 19883 -0.1028 12.010000
19884 ha 16783 TPS HA4 19884 0.1262 1.008000
19885 ca 16783 TPS CA3 19885 -0.1548 12.010000
19886 ha 16783 TPS HA3 19886 0.1282 1.008000
19887 ha 16784 TPS HA2 19887 0.1332 1.008000
19888 ca 16784 TPS CA2 19888 -0.0753 12.010000
19889 ca 16784 TPS CA1 19889 -0.361 12.010000
19890 si 16784 TPS Si 19890 1.1 28.085000
19891 ca 16784 TPS CA6 19891 -0.0753 12.010000
19892 ha 16784 TPS HH6 19892 0.1332 1.008000
19893 ca 16784 TPS CA5 19893 -0.1548 12.010000
19894 ha 16784 TPS HA5 19894 0.1282 1.008000
19895 ca 16784 TPS CA4 19895 -0.1028 12.010000
19896 ha 16784 TPS HA4 19896 0.1262 1.008000
19897 ca 16784 TPS CA3 19897 -0.1548 12.010000
19898 ha 16784 TPS HA3 19898 0.1282 1.008000
19899 ha 16785 TPS HA2 19899 0.1332 1.008000
19900 ca 16785 TPS CA2 19900 -0.0753 12.010000
19901 ca 16785 TPS CA1 19901 -0.361 12.010000
19902 si 16785 TPS Si 19902 1.1 28.085000
19903 ca 16785 TPS CA6 19903 -0.0753 12.010000
19904 ha 16785 TPS HH6 19904 0.1332 1.008000
19905 ca 16785 TPS CA5 19905 -0.1548 12.010000
19906 ha 16785 TPS HA5 19906 0.1282 1.008000
19907 ca 16785 TPS CA4 19907 -0.1028 12.010000
19908 ha 16785 TPS HA4 19908 0.1262 1.008000
19909 ca 16785 TPS CA3 19909 -0.1548 12.010000
19910 ha 16785 TPS HA3 19910 0.1282 1.008000
19911 ha 16786 TPS HA2 19911 0.1332 1.008000
19912 ca 16786 TPS CA2 19912 -0.0753 12.010000
19913 ca 16786 TPS CA1 19913 -0.361 12.010000
19914 si 16786 TPS Si 19914 1.1 28.085000
19915 ca 16786 TPS CA6 19915 -0.0753 12.010000
19916 ha 16786 TPS HH6 19916 0.1332 1.008000
19917 ca 16786 TPS CA5 19917 -0.1548 12.010000
19918 ha 16786 TPS HA5 19918 0.1282 1.008000
19919 ca 16786 TPS CA4 19919 -0.1028 12.010000
19920 ha 16786 TPS HA4 19920 0.1262 1.008000
19921 ca 16786 TPS CA3 19921 -0.1548 12.010000
19922 ha 16786 TPS HA3 19922 0.1282 1.008000
19923 ha 16787 TPS HA2 19923 0.1332 1.008000
19924 ca 16787 TPS CA2 19924 -0.0753 12.010000
19925 ca 16787 TPS CA1 19925 -0.361 12.010000
19926 si 16787 TPS Si 19926 1.1 28.085000
19927 ca 16787 TPS CA6 19927 -0.0753 12.010000
19928 ha 16787 TPS HH6 19928 0.1332 1.008000
19929 ca 16787 TPS CA5 19929 -0.1548 12.010000
19930 ha 16787 TPS HA5 19930 0.1282 1.008000
19931 ca 16787 TPS CA4 19931 -0.1028 12.010000
19932 ha 16787 TPS HA4 19932 0.1262 1.008000
19933 ca 16787 TPS CA3 19933 -0.1548 12.010000
19934 ha 16787 TPS HA3 19934 0.1282 1.008000
19935 ha 16788 TPS HA2 19935 0.1332 1.008000
19936 ca 16788 TPS CA2 19936 -0.0753 12.010000
19937 ca 16788 TPS CA1 19937 -0.361 12.010000
19938 si 16788 TPS Si 19938 1.1 28.085000
19939 ca 16788 TPS CA6 19939 -0.0753 12.010000
19940 ha 16788 TPS HH6 19940 0.1332 1.008000
19941 ca 16788 TPS CA5 19941 -0.1548 12.010000
19942 ha 16788 TPS HA5 19942 0.1282 1.008000
19943 ca 16788 TPS CA4 19943 -0.1028 12.010000
19944 ha 16788 TPS HA4 19944 0.1262 1.008000
19945 ca 16788 TPS CA3 19945 -0.1548 12.010000
19946 ha 16788 TPS HA3 19946 0.1282 1.008000
19947 ha 16789 TPS HA2 19947 0.1332 1.008000
19948 ca 16789 TPS CA2 19948 -0.0753 12.010000
19949 ca 16789 TPS CA1 19949 -0.361 12.010000
19950 si 16789 TPS Si 19950 1.1 28.085000
19951 ca 16789 TPS CA6 19951 -0.0753 12.010000
19952 ha 16789 TPS HH6 19952 0.1332 1.008000
19953 ca 16789 TPS CA5 19953 -0.1548 12.010000
19954 ha 16789 TPS HA5 19954 0.1282 1.008000
19955 ca 16789 TPS CA4 19955 -0.1028 12.010000
19956 ha 16789 TPS HA4 19956 0.1262 1.008000
19957 ca 16789 TPS CA3 19957 -0.1548 12.010000
19958 ha 16789 TPS HA3 19958 0.1282 1.008000
19959 ha 16790 TPS HA2 19959 0.1332 1.008000
19960 ca 16790 TPS CA2 19960 -0.0753 12.010000
19961 ca 16790 TPS CA1 19961 -0.361 12.010000
19962 si 16790 TPS Si 19962 1.1 28.085000
19963 ca 16790 TPS CA6 19963 -0.0753 12.010000
19964 ha 16790 TPS HH6 19964 0.1332 1.008000
19965 ca 16790 TPS CA5 19965 -0.1548 12.010000
19966 ha 16790 TPS HA5 19966 0.1282 1.008000
19967 ca 16790 TPS CA4 19967 -0.1028 12.010000
19968 ha 16790 TPS HA4 19968 0.1262 1.008000
19969 ca 16790 TPS CA3 19969 -0.1548 12.010000
19970 ha 16790 TPS HA3 19970 0.1282 1.008000
19971 ha 16791 TPS HA2 19971 0.1332 1.008000
19972 ca 16791 TPS CA2 19972 -0.0753 12.010000
19973 ca 16791 TPS CA1 19973 -0.361 12.010000
19974 si 16791 TPS Si 19974 1.1 28.085000
19975 ca 16791 TPS CA6 19975 -0.0753 12.010000
19976 ha 16791 TPS HH6 19976 0.1332 1.008000
19977 ca 16791 TPS CA5 19977 -0.1548 12.010000
19978 ha 16791 TPS HA5 19978 0.1282 1.008000
19979 ca 16791 TPS CA4 19979 -0.1028 12.010000
19980 ha 16791 TPS HA4 19980 0.1262 1.008000
19981 ca 16791 TPS CA3 19981 -0.1548 12.010000
19982 ha 16791 TPS HA3 19982 0.1282 1.008000
19983 ha 16792 TPS HA2 19983 0.1332 1.008000
19984 ca 16792 TPS CA2 19984 -0.0753 12.010000
19985 ca 16792 TPS CA1 19985 -0.361 12.010000
19986 si 16792 TPS Si 19986 1.1 28.085000
19987 ca 16792 TPS CA6 19987 -0.0753 12.010000
19988 ha 16792 TPS HH6 19988 0.1332 1.008000
19989 ca 16792 TPS CA5 19989 -0.1548 12.010000
19990 ha 16792 TPS HA5 19990 0.1282 1.008000
19991 ca 16792 TPS CA4 19991 -0.1028 12.010000
19992 ha 16792 TPS HA4 19992 0.1262 1.008000
19993 ca 16792 TPS CA3 19993 -0.1548 12.010000
19994 ha 16792 TPS HA3 19994 0.1282 1.008000
19995 ha 16793 TPS HA2 19995 0.1332 1.008000
19996 ca 16793 TPS CA2 19996 -0.0753 12.010000
19997 ca 16793 TPS CA1 19997 -0.361 12.010000
19998 si 16793 TPS Si 19998 1.1 28.085000
19999 ca 16793 TPS CA6 19999 -0.0753 12.010000
20000 ha 16793 TPS HH6 20000 0.1332 1.008000
20001 ca 16793 TPS CA5 20001 -0.1548 12.010000
20002 ha 16793 TPS HA5 20002 0.1282 1.008000
20003 ca 16793 TPS CA4 20003 -0.1028 12.010000
20004 ha 16793 TPS HA4 20004 0.1262 1.008000
20005 ca 16793 TPS CA3 20005 -0.1548 12.010000
20006 ha 16793 TPS HA3 20006 0.1282 1.008000
20007 ha 16794 TPS HA2 20007 0.1332 1.008000
20008 ca 16794 TPS CA2 20008 -0.0753 12.010000
20009 ca 16794 TPS CA1 20009 -0.361 12.010000
20010 si 16794 TPS Si 20010 1.1 28.085000
20011 ca 16794 TPS CA6 20011 -0.0753 12.010000
20012 ha 16794 TPS HH6 20012 0.1332 1.008000
20013 ca 16794 TPS CA5 20013 -0.1548 12.010000
20014 ha 16794 TPS HA5 20014 0.1282 1.008000
20015 ca 16794 TPS CA4 20015 -0.1028 12.010000
20016 ha 16794 TPS HA4 20016 0.1262 1.008000
20017 ca 16794 TPS CA3 20017 -0.1548 12.010000
20018 ha 16794 TPS HA3 20018 0.1282 1.008000
20019 ha 16795 TPS HA2 20019 0.1332 1.008000
20020 ca 16795 TPS CA2 20020 -0.0753 12.010000
20021 ca 16795 TPS CA1 20021 -0.361 12.010000
20022 si 16795 TPS Si 20022 1.1 28.085000
20023 ca 16795 TPS CA6 20023 -0.0753 12.010000
20024 ha 16795 TPS HH6 20024 0.1332 1.008000
20025 ca 16795 TPS CA5 20025 -0.1548 12.010000
20026 ha 16795 TPS HA5 20026 0.1282 1.008000
20027 ca 16795 TPS CA4 20027 -0.1028 12.010000
20028 ha 16795 TPS HA4 20028 0.1262 1.008000
20029 ca 16795 TPS CA3 20029 -0.1548 12.010000
20030 ha 16795 TPS HA3 20030 0.1282 1.008000
20031 ha 16796 TPS HA2 20031 0.1332 1.008000
20032 ca 16796 TPS CA2 20032 -0.0753 12.010000
20033 ca 16796 TPS CA1 20033 -0.361 12.010000
20034 si 16796 TPS Si 20034 1.1 28.085000
20035 ca 16796 TPS CA6 20035 -0.0753 12.010000
20036 ha 16796 TPS HH6 20036 0.1332 1.008000
20037 ca 16796 TPS CA5 20037 -0.1548 12.010000
20038 ha 16796 TPS HA5 20038 0.1282 1.008000
20039 ca 16796 TPS CA4 20039 -0.1028 12.010000
20040 ha 16796 TPS HA4 20040 0.1262 1.008000
20041 ca 16796 TPS CA3 20041 -0.1548 12.010000
20042 ha 16796 TPS HA3 20042 0.1282 1.008000
20043 ha 16797 TPS HA2 20043 0.1332 1.008000
20044 ca 16797 TPS CA2 20044 -0.0753 12.010000
20045 ca 16797 TPS CA1 20045 -0.361 12.010000
20046 si 16797 TPS Si 20046 1.1 28.085000
20047 ca 16797 TPS CA6 20047 -0.0753 12.010000
20048 ha 16797 TPS HH6 20048 0.1332 1.008000
20049 ca 16797 TPS CA5 20049 -0.1548 12.010000
20050 ha 16797 TPS HA5 20050 0.1282 1.008000
20051 ca 16797 TPS CA4 20051 -0.1028 12.010000
20052 ha 16797 TPS HA4 20052 0.1262 1.008000
20053 ca 16797 TPS CA3 20053 -0.1548 12.010000
20054 ha 16797 TPS HA3 20054 0.1282 1.008000
20055 ha 16798 TPS HA2 20055 0.1332 1.008000
20056 ca 16798 TPS CA2 20056 -0.0753 12.010000
20057 ca 16798 TPS CA1 20057 -0.361 12.010000
20058 si 16798 TPS Si 20058 1.1 28.085000
20059 ca 16798 TPS CA6 20059 -0.0753 12.010000
20060 ha 16798 TPS HH6 20060 0.1332 1.008000
20061 ca 16798 TPS CA5 20061 -0.1548 12.010000
20062 ha 16798 TPS HA5 20062 0.1282 1.008000
20063 ca 16798 TPS CA4 20063 -0.1028 12.010000
20064 ha 16798 TPS HA4 20064 0.1262 1.008000
20065 ca 16798 TPS CA3 20065 -0.1548 12.010000
20066 ha 16798 TPS HA3 20066 0.1282 1.008000
20067 ha 16799 TPS HA2 20067 0.1332 1.008000
20068 ca 16799 TPS CA2 20068 -0.0753 12.010000
20069 ca 16799 TPS CA1 20069 -0.361 12.010000
20070 si 16799 TPS Si 20070 1.1 28.085000
20071 ca 16799 TPS CA6 20071 -0.0753 12.010000
20072 ha 16799 TPS HH6 20072 0.1332 1.008000
20073 ca 16799 TPS CA5 20073 -0.1548 12.010000
20074 ha 16799 TPS HA5 20074 0.1282 1.008000
20075 ca 16799 TPS CA4 20075 -0.1028 12.010000
20076 ha 16799 TPS HA4 20076 0.1262 1.008000
20077 ca 16799 TPS CA3 20077 -0.1548 12.010000
20078 ha 16799 TPS HA3 20078 0.1282 1.008000
20079 ha 16800 TPS HA2 20079 0.1332 1.008000
20080 ca 16800 TPS CA2 20080 -0.0753 12.010000
20081 ca 16800 TPS CA1 20081 -0.361 12.010000
20082 si 16800 TPS Si 20082 1.1 28.085000
20083 ca 16800 TPS CA6 20083 -0.0753 12.010000
20084 ha 16800 TPS HH6 20084 0.1332 1.008000
20085 ca 16800 TPS CA5 20085 -0.1548 12.010000
20086 ha 16800 TPS HA5 20086 0.1282 1.008000
20087 ca 16800 TPS CA4 20087 -0.1028 12.010000
20088 ha 16800 TPS HA4 20088 0.1262 1.008000
20089 ca 16800 TPS CA3 20089 -0.1548 12.010000
20090 ha 16800 TPS HA3 20090 0.1282 1.008000
20091 ha 16801 TPS HA2 20091 0.1332 1.008000
20092 ca 16801 TPS CA2 20092 -0.0753 12.010000
20093 ca 16801 TPS CA1 20093 -0.361 12.010000
20094 si 16801 TPS Si 20094 1.1 28.085000
20095 ca 16801 TPS CA6 20095 -0.0753 12.010000
20096 ha 16801 TPS HH6 20096 0.1332 1.008000
20097 ca 16801 TPS CA5 20097 -0.1548 12.010000
20098 ha 16801 TPS HA5 20098 0.1282 1.008000
20099 ca 16801 TPS CA4 20099 -0.1028 12.010000
20100 ha 16801 TPS HA4 20100 0.1262 1.008000
20101 ca 16801 TPS CA3 20101 -0.1548 12.010000
20102 ha 16801 TPS HA3 20102 0.1282 1.008000
20103 ha 16802 TPS HA2 20103 0.1332 1.008000
20104 ca 16802 TPS CA2 20104 -0.0753 12.010000
20105 ca 16802 TPS CA1 20105 -0.361 12.010000
20106 si 16802 TPS Si 20106 1.1 28.085000
20107 ca 16802 TPS CA6 20107 -0.0753 12.010000
20108 ha 16802 TPS HH6 20108 0.1332 1.008000
20109 ca 16802 TPS CA5 20109 -0.1548 12.010000
20110 ha 16802 TPS HA5 20110 0.1282 1.008000
20111 ca 16802 TPS CA4 20111 -0.1028 12.010000
20112 ha 16802 TPS HA4 20112 0.1262 1.008000
20113 ca 16802 TPS CA3 20113 -0.1548 12.010000
20114 ha 16802 TPS HA3 20114 0.1282 1.008000
20115 ha 16803 TPS HA2 20115 0.1332 1.008000
20116 ca 16803 TPS CA2 20116 -0.0753 12.010000
20117 ca 16803 TPS CA1 20117 -0.361 12.010000
20118 si 16803 TPS Si 20118 1.1 28.085000
20119 ca 16803 TPS CA6 20119 -0.0753 12.010000
20120 ha 16803 TPS HH6 20120 0.1332 1.008000
20121 ca 16803 TPS CA5 20121 -0.1548 12.010000
20122 ha 16803 TPS HA5 20122 0.1282 1.008000
20123 ca 16803 TPS CA4 20123 -0.1028 12.010000
20124 ha 16803 TPS HA4 20124 0.1262 1.008000
20125 ca 16803 TPS CA3 20125 -0.1548 12.010000
20126 ha 16803 TPS HA3 20126 0.1282 1.008000
20127 ha 16804 TPS HA2 20127 0.1332 1.008000
20128 ca 16804 TPS CA2 20128 -0.0753 12.010000
20129 ca 16804 TPS CA1 20129 -0.361 12.010000
20130 si 16804 TPS Si 20130 1.1 28.085000
20131 ca 16804 TPS CA6 20131 -0.0753 12.010000
20132 ha 16804 TPS HH6 20132 0.1332 1.008000
20133 ca 16804 TPS CA5 20133 -0.1548 12.010000
20134 ha 16804 TPS HA5 20134 0.1282 1.008000
20135 ca 16804 TPS CA4 20135 -0.1028 12.010000
20136 ha 16804 TPS HA4 20136 0.1262 1.008000
20137 ca 16804 TPS CA3 20137 -0.1548 12.010000
20138 ha 16804 TPS HA3 20138 0.1282 1.008000
20139 ha 16805 TPS HA2 20139 0.1332 1.008000
20140 ca 16805 TPS CA2 20140 -0.0753 12.010000
20141 ca 16805 TPS CA1 20141 -0.361 12.010000
20142 si 16805 TPS Si 20142 1.1 28.085000
20143 ca 16805 TPS CA6 20143 -0.0753 12.010000
20144 ha 16805 TPS HH6 20144 0.1332 1.008000
20145 ca 16805 TPS CA5 20145 -0.1548 12.010000
20146 ha 16805 TPS HA5 20146 0.1282 1.008000
20147 ca 16805 TPS CA4 20147 -0.1028 12.010000
20148 ha 16805 TPS HA4 20148 0.1262 1.008000
20149 ca 16805 TPS CA3 20149 -0.1548 12.010000
20150 ha 16805 TPS HA3 20150 0.1282 1.008000
20151 ha 16806 TPS HA2 20151 0.1332 1.008000
20152 ca 16806 TPS CA2 20152 -0.0753 12.010000
20153 ca 16806 TPS CA1 20153 -0.361 12.010000
20154 si 16806 TPS Si 20154 1.1 28.085000
20155 ca 16806 TPS CA6 20155 -0.0753 12.010000
20156 ha 16806 TPS HH6 20156 0.1332 1.008000
20157 ca 16806 TPS CA5 20157 -0.1548 12.010000
20158 ha 16806 TPS HA5 20158 0.1282 1.008000
20159 ca 16806 TPS CA4 20159 -0.1028 12.010000
20160 ha 16806 TPS HA4 20160 0.1262 1.008000
20161 ca 16806 TPS CA3 20161 -0.1548 12.010000
20162 ha 16806 TPS HA3 20162 0.1282 1.008000
20163 ha 16807 TPS HA2 20163 0.1332 1.008000
20164 ca 16807 TPS CA2 20164 -0.0753 12.010000
20165 ca 16807 TPS CA1 20165 -0.361 12.010000
20166 si 16807 TPS Si 20166 1.1 28.085000
20167 ca 16807 TPS CA6 20167 -0.0753 12.010000
20168 ha 16807 TPS HH6 20168 0.1332 1.008000
20169 ca 16807 TPS CA5 20169 -0.1548 12.010000
20170 ha 16807 TPS HA5 20170 0.1282 1.008000
20171 ca 16807 TPS CA4 20171 -0.1028 12.010000
20172 ha 16807 TPS HA4 20172 0.1262 1.008000
20173 ca 16807 TPS CA3 20173 -0.1548 12.010000
20174 ha 16807 TPS HA3 20174 0.1282 1.008000
20175 ha 16808 TPS HA2 20175 0.1332 1.008000
20176 ca 16808 TPS CA2 20176 -0.0753 12.010000
20177 ca 16808 TPS CA1 20177 -0.361 12.010000
20178 si 16808 TPS Si 20178 1.1 28.085000
20179 ca 16808 TPS CA6 20179 -0.0753 12.010000
20180 ha 16808 TPS HH6 20180 0.1332 1.008000
20181 ca 16808 TPS CA5 20181 -0.1548 12.010000
20182 ha 16808 TPS HA5 20182 0.1282 1.008000
20183 ca 16808 TPS CA4 20183 -0.1028 12.010000
20184 ha 16808 TPS HA4 20184 0.1262 1.008000
20185 ca 16808 TPS CA3 20185 -0.1548 12.010000
20186 ha 16808 TPS HA3 20186 0.1282 1.008000
20187 ha 16809 TPS HA2 20187 0.1332 1.008000
20188 ca 16809 TPS CA2 20188 -0.0753 12.010000
20189 ca 16809 TPS CA1 20189 -0.361 12.010000
20190 si 16809 TPS Si 20190 1.1 28.085000
20191 ca 16809 TPS CA6 20191 -0.0753 12.010000
20192 ha 16809 TPS HH6 20192 0.1332 1.008000
20193 ca 16809 TPS CA5 20193 -0.1548 12.010000
20194 ha 16809 TPS HA5 20194 0.1282 1.008000
20195 ca 16809 TPS CA4 20195 -0.1028 12.010000
20196 ha 16809 TPS HA4 20196 0.1262 1.008000
20197 ca 16809 TPS CA3 20197 -0.1548 12.010000
20198 ha 16809 TPS HA3 20198 0.1282 1.008000
20199 ha 16810 TPS HA2 20199 0.1332 1.008000
20200 ca 16810 TPS CA2 20200 -0.0753 12.010000
20201 ca 16810 TPS CA1 20201 -0.361 12.010000
20202 si 16810 TPS Si 20202 1.1 28.085000
20203 ca 16810 TPS CA6 20203 -0.0753 12.010000
20204 ha 16810 TPS HH6 20204 0.1332 1.008000
20205 ca 16810 TPS CA5 20205 -0.1548 12.010000
20206 ha 16810 TPS HA5 20206 0.1282 1.008000
20207 ca 16810 TPS CA4 20207 -0.1028 12.010000
20208 ha 16810 TPS HA4 20208 0.1262 1.008000
20209 ca 16810 TPS CA3 20209 -0.1548 12.010000
20210 ha 16810 TPS HA3 20210 0.1282 1.008000
20211 ha 16811 TPS HA2 20211 0.1332 1.008000
20212 ca 16811 TPS CA2 20212 -0.0753 12.010000
20213 ca 16811 TPS CA1 20213 -0.361 12.010000
20214 si 16811 TPS Si 20214 1.1 28.085000
20215 ca 16811 TPS CA6 20215 -0.0753 12.010000
20216 ha 16811 TPS HH6 20216 0.1332 1.008000
20217 ca 16811 TPS CA5 20217 -0.1548 12.010000
20218 ha 16811 TPS HA5 20218 0.1282 1.008000
20219 ca 16811 TPS CA4 20219 -0.1028 12.010000
20220 ha 16811 TPS HA4 20220 0.1262 1.008000
20221 ca 16811 TPS CA3 20221 -0.1548 12.010000
20222 ha 16811 TPS HA3 20222 0.1282 1.008000
20223 ha 16812 TPS HA2 20223 0.1332 1.008000
20224 ca 16812 TPS CA2 20224 -0.0753 12.010000
20225 ca 16812 TPS CA1 20225 -0.361 12.010000
20226 si 16812 TPS Si 20226 1.1 28.085000
20227 ca 16812 TPS CA6 20227 -0.0753 12.010000
20228 ha 16812 TPS HH6 20228 0.1332 1.008000
20229 ca 16812 TPS CA5 20229 -0.1548 12.010000
20230 ha 16812 TPS HA5 20230 0.1282 1.008000
20231 ca 16812 TPS CA4 20231 -0.1028 12.010000
20232 ha 16812 TPS HA4 20232 0.1262 1.008000
20233 ca 16812 TPS CA3 20233 -0.1548 12.010000
20234 ha 16812 TPS HA3 20234 0.1282 1.008000
20235 ha 16813 TPS HA2 20235 0.1332 1.008000
20236 ca 16813 TPS CA2 20236 -0.0753 12.010000
20237 ca 16813 TPS CA1 20237 -0.361 12.010000
20238 si 16813 TPS Si 20238 1.1 28.085000
20239 ca 16813 TPS CA6 20239 -0.0753 12.010000
20240 ha 16813 TPS HH6 20240 0.1332 1.008000
20241 ca 16813 TPS CA5 20241 -0.1548 12.010000
20242 ha 16813 TPS HA5 20242 0.1282 1.008000
20243 ca 16813 TPS CA4 20243 -0.1028 12.010000
20244 ha 16813 TPS HA4 20244 0.1262 1.008000
20245 ca 16813 TPS CA3 20245 -0.1548 12.010000
20246 ha 16813 TPS HA3 20246 0.1282 1.008000
20247 ha 16814 TPS HA2 20247 0.1332 1.008000
20248 ca 16814 TPS CA2 20248 -0.0753 12.010000
20249 ca 16814 TPS CA1 20249 -0.361 12.010000
20250 si 16814 TPS Si 20250 1.1 28.085000
20251 ca 16814 TPS CA6 20251 -0.0753 12.010000
20252 ha 16814 TPS HH6 20252 0.1332 1.008000
20253 ca 16814 TPS CA5 20253 -0.1548 12.010000
20254 ha 16814 TPS HA5 20254 0.1282 1.008000
20255 ca 16814 TPS CA4 20255 -0.1028 12.010000
20256 ha 16814 TPS HA4 20256 0.1262 1.008000
20257 ca 16814 TPS CA3 20257 -0.1548 12.010000
20258 ha 16814 TPS HA3 20258 0.1282 1.008000
20259 ha 16815 TPS HA2 20259 0.1332 1.008000
20260 ca 16815 TPS CA2 20260 -0.0753 12.010000
20261 ca 16815 TPS CA1 20261 -0.361 12.010000
20262 si 16815 TPS Si 20262 1.1 28.085000
20263 ca 16815 TPS CA6 20263 -0.0753 12.010000
20264 ha 16815 TPS HH6 20264 0.1332 1.008000
20265 ca 16815 TPS CA5 20265 -0.1548 12.010000
20266 ha 16815 TPS HA5 20266 0.1282 1.008000
20267 ca 16815 TPS CA4 20267 -0.1028 12.010000
20268 ha 16815 TPS HA4 20268 0.1262 1.008000
20269 ca 16815 TPS CA3 20269 -0.1548 12.010000
20270 ha 16815 TPS HA3 20270 0.1282 1.008000
20271 ha 16816 TPS HA2 20271 0.1332 1.008000
20272 ca 16816 TPS CA2 20272 -0.0753 12.010000
20273 ca 16816 TPS CA1 20273 -0.361 12.010000
20274 si 16816 TPS Si 20274 1.1 28.085000
20275 ca 16816 TPS CA6 20275 -0.0753 12.010000
20276 ha 16816 TPS HH6 20276 0.1332 1.008000
20277 ca 16816 TPS CA5 20277 -0.1548 12.010000
20278 ha 16816 TPS HA5 20278 0.1282 1.008000
20279 ca 16816 TPS CA4 20279 -0.1028 12.010000
20280 ha 16816 TPS HA4 20280 0.1262 1.008000
20281 ca 16816 TPS CA3 20281 -0.1548 12.010000
20282 ha 16816 TPS HA3 20282 0.1282 1.008000
20283 ha 16817 TPS HA2 20283 0.1332 1.008000
20284 ca 16817 TPS CA2 20284 -0.0753 12.010000
20285 ca 16817 TPS CA1 20285 -0.361 12.010000
20286 si 16817 TPS Si 20286 1.1 28.085000
20287 ca 16817 TPS CA6 20287 -0.0753 12.010000
20288 ha 16817 TPS HH6 20288 0.1332 1.008000
20289 ca 16817 TPS CA5 20289 -0.1548 12.010000
20290 ha 16817 TPS HA5 20290 0.1282 1.008000
20291 ca 16817 TPS CA4 20291 -0.1028 12.010000
20292 ha 16817 TPS HA4 20292 0.1262 1.008000
20293 ca 16817 TPS CA3 20293 -0.1548 12.010000
20294 ha 16817 TPS HA3 20294 0.1282 1.008000
20295 ha 16818 TPS HA2 20295 0.1332 1.008000
20296 ca 16818 TPS CA2 20296 -0.0753 12.010000
20297 ca 16818 TPS CA1 20297 -0.361 12.010000
20298 si 16818 TPS Si 20298 1.1 28.085000
20299 ca 16818 TPS CA6 20299 -0.0753 12.010000
20300 ha 16818 TPS HH6 20300 0.1332 1.008000
20301 ca 16818 TPS CA5 20301 -0.1548 12.010000
20302 ha 16818 TPS HA5 20302 0.1282 1.008000
20303 ca 16818 TPS CA4 20303 -0.1028 12.010000
20304 ha 16818 TPS HA4 20304 0.1262 1.008000
20305 ca 16818 TPS CA3 20305 -0.1548 12.010000
20306 ha 16818 TPS HA3 20306 0.1282 1.008000
20307 ha 16819 TPS HA2 20307 0.1332 1.008000
20308 ca 16819 TPS CA2 20308 -0.0753 12.010000
20309 ca 16819 TPS CA1 20309 -0.361 12.010000
20310 si 16819 TPS Si 20310 1.1 28.085000
20311 ca 16819 TPS CA6 20311 -0.0753 12.010000
20312 ha 16819 TPS HH6 20312 0.1332 1.008000
20313 ca 16819 TPS CA5 20313 -0.1548 12.010000
20314 ha 16819 TPS HA5 20314 0.1282 1.008000
20315 ca 16819 TPS CA4 20315 -0.1028 12.010000
20316 ha 16819 TPS HA4 20316 0.1262 1.008000
20317 ca 16819 TPS CA3 20317 -0.1548 12.010000
20318 ha 16819 TPS HA3 20318 0.1282 1.008000
20319 ha 16820 TPS HA2 20319 0.1332 1.008000
20320 ca 16820 TPS CA2 20320 -0.0753 12.010000
20321 ca 16820 TPS CA1 20321 -0.361 12.010000
20322 si 16820 TPS Si 20322 1.1 28.085000
20323 ca 16820 TPS CA6 20323 -0.0753 12.010000
20324 ha 16820 TPS HH6 20324 0.1332 1.008000
20325 ca 16820 TPS CA5 20325 -0.1548 12.010000
20326 ha 16820 TPS HA5 20326 0.1282 1.008000
20327 ca 16820 TPS CA4 20327 -0.1028 12.010000
20328 ha 16820 TPS HA4 20328 0.1262 1.008000
20329 ca 16820 TPS CA3 20329 -0.1548 12.010000
20330 ha 16820 TPS HA3 20330 0.1282 1.008000
20331 ha 16821 TPS HA2 20331 0.1332 1.008000
20332 ca 16821 TPS CA2 20332 -0.0753 12.010000
20333 ca 16821 TPS CA1 20333 -0.361 12.010000
20334 si 16821 TPS Si 20334 1.1 28.085000
20335 ca 16821 TPS CA6 20335 -0.0753 12.010000
20336 ha 16821 TPS HH6 20336 0.1332 1.008000
20337 ca 16821 TPS CA5 20337 -0.1548 12.010000
20338 ha 16821 TPS HA5 20338 0.1282 1.008000
20339 ca 16821 TPS CA4 20339 -0.1028 12.010000
20340 ha 16821 TPS HA4 20340 0.1262 1.008000
20341 ca 16821 TPS CA3 20341 -0.1548 12.010000
20342 ha 16821 TPS HA3 20342 0.1282 1.008000
20343 ha 16822 TPS HA2 20343 0.1332 1.008000
20344 ca 16822 TPS CA2 20344 -0.0753 12.010000
20345 ca 16822 TPS CA1 20345 -0.361 12.010000
20346 si 16822 TPS Si 20346 1.1 28.085000
20347 ca 16822 TPS CA6 20347 -0.0753 12.010000
20348 ha 16822 TPS HH6 20348 0.1332 1.008000
20349 ca 16822 TPS CA5 20349 -0.1548 12.010000
20350 ha 16822 TPS HA5 20350 0.1282 1.008000
20351 ca 16822 TPS CA4 20351 -0.1028 12.010000
20352 ha 16822 TPS HA4 20352 0.1262 1.008000
20353 ca 16822 TPS CA3 20353 -0.1548 12.010000
20354 ha 16822 TPS HA3 20354 0.1282 1.008000
20355 ha 16823 TPS HA2 20355 0.1332 1.008000
20356 ca 16823 TPS CA2 20356 -0.0753 12.010000
20357 ca 16823 TPS CA1 20357 -0.361 12.010000
20358 si 16823 TPS Si 20358 1.1 28.085000
20359 ca 16823 TPS CA6 20359 -0.0753 12.010000
20360 ha 16823 TPS HH6 20360 0.1332 1.008000
20361 ca 16823 TPS CA5 20361 -0.1548 12.010000
20362 ha 16823 TPS HA5 20362 0.1282 1.008000
20363 ca 16823 TPS CA4 20363 -0.1028 12.010000
20364 ha 16823 TPS HA4 20364 0.1262 1.008000
20365 ca 16823 TPS CA3 20365 -0.1548 12.010000
20366 ha 16823 TPS HA3 20366 0.1282 1.008000
20367 ha 16824 TPS HA2 20367 0.1332 1.008000
20368 ca 16824 TPS CA2 20368 -0.0753 12.010000
20369 ca 16824 TPS CA1 20369 -0.361 12.010000
20370 si 16824 TPS Si 20370 1.1 28.085000
20371 ca 16824 TPS CA6 20371 -0.0753 12.010000
20372 ha 16824 TPS HH6 20372 0.1332 1.008000
20373 ca 16824 TPS CA5 20373 -0.1548 12.010000
20374 ha 16824 TPS HA5 20374 0.1282 1.008000
20375 ca 16824 TPS CA4 20375 -0.1028 12.010000
20376 ha 16824 TPS HA4 20376 0.1262 1.008000
20377 ca 16824 TPS CA3 20377 -0.1548 12.010000
20378 ha 16824 TPS HA3 20378 0.1282 1.008000
20379 ha 16825 TPS HA2 20379 0.1332 1.008000
20380 ca 16825 TPS CA2 20380 -0.0753 12.010000
20381 ca 16825 TPS CA1 20381 -0.361 12.010000
20382 si 16825 TPS Si 20382 1.1 28.085000
20383 ca 16825 TPS CA6 20383 -0.0753 12.010000
20384 ha 16825 TPS HH6 20384 0.1332 1.008000
20385 ca 16825 TPS CA5 20385 -0.1548 12.010000
20386 ha 16825 TPS HA5 20386 0.1282 1.008000
20387 ca 16825 TPS CA4 20387 -0.1028 12.010000
20388 ha 16825 TPS HA4 20388 0.1262 1.008000
20389 ca 16825 TPS CA3 20389 -0.1548 12.010000
20390 ha 16825 TPS HA3 20390 0.1282 1.008000
20391 ha 16826 TPS HA2 20391 0.1332 1.008000
20392 ca 16826 TPS CA2 20392 -0.0753 12.010000
20393 ca 16826 TPS CA1 20393 -0.361 12.010000
20394 si 16826 TPS Si 20394 1.1 28.085000
20395 ca 16826 TPS CA6 20395 -0.0753 12.010000
20396 ha 16826 TPS HH6 20396 0.1332 1.008000
20397 ca 16826 TPS CA5 20397 -0.1548 12.010000
20398 ha 16826 TPS HA5 20398 0.1282 1.008000
20399 ca 16826 TPS CA4 20399 -0.1028 12.010000
20400 ha 16826 TPS HA4 20400 0.1262 1.008000
20401 ca 16826 TPS CA3 20401 -0.1548 12.010000
20402 ha 16826 TPS HA3 20402 0.1282 1.008000
20403 ha 16827 TPS HA2 20403 0.1332 1.008000
20404 ca 16827 TPS CA2 20404 -0.0753 12.010000
20405 ca 16827 TPS CA1 20405 -0.361 12.010000
20406 si 16827 TPS Si 20406 1.1 28.085000
20407 ca 16827 TPS CA6 20407 -0.0753 12.010000
20408 ha 16827 TPS HH6 20408 0.1332 1.008000
20409 ca 16827 TPS CA5 20409 -0.1548 12.010000
20410 ha 16827 TPS HA5 20410 0.1282 1.008000
20411 ca 16827 TPS CA4 20411 -0.1028 12.010000
20412 ha 16827 TPS HA4 20412 0.1262 1.008000
20413 ca 16827 TPS CA3 20413 -0.1548 12.010000
20414 ha 16827 TPS HA3 20414 0.1282 1.008000
20415 ha 16828 TPS HA2 20415 0.1332 1.008000
20416 ca 16828 TPS CA2 20416 -0.0753 12.010000
20417 ca 16828 TPS CA1 20417 -0.361 12.010000
20418 si 16828 TPS Si 20418 1.1 28.085000
20419 ca 16828 TPS CA6 20419 -0.0753 12.010000
20420 ha 16828 TPS HH6 20420 0.1332 1.008000
20421 ca 16828 TPS CA5 20421 -0.1548 12.010000
20422 ha 16828 TPS HA5 20422 0.1282 1.008000
20423 ca 16828 TPS CA4 20423 -0.1028 12.010000
20424 ha 16828 TPS HA4 20424 0.1262 1.008000
20425 ca 16828 TPS CA3 20425 -0.1548 12.010000
20426 ha 16828 TPS HA3 20426 0.1282 1.008000
20427 ha 16829 TPS HA2 20427 0.1332 1.008000
20428 ca 16829 TPS CA2 20428 -0.0753 12.010000
20429 ca 16829 TPS CA1 20429 -0.361 12.010000
20430 si 16829 TPS Si 20430 1.1 28.085000
20431 ca 16829 TPS CA6 20431 -0.0753 12.010000
20432 ha 16829 TPS HH6 20432 0.1332 1.008000
20433 ca 16829 TPS CA5 20433 -0.1548 12.010000
20434 ha 16829 TPS HA5 20434 0.1282 1.008000
20435 ca 16829 TPS CA4 20435 -0.1028 12.010000
20436 ha 16829 TPS HA4 20436 0.1262 1.008000
20437 ca 16829 TPS CA3 20437 -0.1548 12.010000
20438 ha 16829 TPS HA3 20438 0.1282 1.008000
20439 ha 16830 TPS HA2 20439 0.1332 1.008000
20440 ca 16830 TPS CA2 20440 -0.0753 12.010000
20441 ca 16830 TPS CA1 20441 -0.361 12.010000
20442 si 16830 TPS Si 20442 1.1 28.085000
20443 ca 16830 TPS CA6 20443 -0.0753 12.010000
20444 ha 16830 TPS HH6 20444 0.1332 1.008000
20445 ca 16830 TPS CA5 20445 -0.1548 12.010000
20446 ha 16830 TPS HA5 20446 0.1282 1.008000
20447 ca 16830 TPS CA4 20447 -0.1028 12.010000
20448 ha 16830 TPS HA4 20448 0.1262 1.008000
20449 ca 16830 TPS CA3 20449 -0.1548 12.010000
20450 ha 16830 TPS HA3 20450 0.1282 1.008000
20451 ha 16831 TPS HA2 20451 0.1332 1.008000
20452 ca 16831 TPS CA2 20452 -0.0753 12.010000
20453 ca 16831 TPS CA1 20453 -0.361 12.010000
20454 si 16831 TPS Si 20454 1.1 28.085000
20455 ca 16831 TPS CA6 20455 -0.0753 12.010000
20456 ha 16831 TPS HH6 20456 0.1332 1.008000
20457 ca 16831 TPS CA5 20457 -0.1548 12.010000
20458 ha 16831 TPS HA5 20458 0.1282 1.008000
20459 ca 16831 TPS CA4 20459 -0.1028 12.010000
20460 ha 16831 TPS HA4 20460 0.1262 1.008000
20461 ca 16831 TPS CA3 20461 -0.1548 12.010000
20462 ha 16831 TPS HA3 20462 0.1282 1.008000
20463 ha 16832 TPS HA2 20463 0.1332 1.008000
20464 ca 16832 TPS CA2 20464 -0.0753 12.010000
20465 ca 16832 TPS CA1 20465 -0.361 12.010000
20466 si 16832 TPS Si 20466 1.1 28.085000
20467 ca 16832 TPS CA6 20467 -0.0753 12.010000
20468 ha 16832 TPS HH6 20468 0.1332 1.008000
20469 ca 16832 TPS CA5 20469 -0.1548 12.010000
20470 ha 16832 TPS HA5 20470 0.1282 1.008000
20471 ca 16832 TPS CA4 20471 -0.1028 12.010000
20472 ha 16832 TPS HA4 20472 0.1262 1.008000
20473 ca 16832 TPS CA3 20473 -0.1548 12.010000
20474 ha 16832 TPS HA3 20474 0.1282 1.008000
20475 ha 16833 TPS HA2 20475 0.1332 1.008000
20476 ca 16833 TPS CA2 20476 -0.0753 12.010000
20477 ca 16833 TPS CA1 20477 -0.361 12.010000
20478 si 16833 TPS Si 20478 1.1 28.085000
20479 ca 16833 TPS CA6 20479 -0.0753 12.010000
20480 ha 16833 TPS HH6 20480 0.1332 1.008000
20481 ca 16833 TPS CA5 20481 -0.1548 12.010000
20482 ha 16833 TPS HA5 20482 0.1282 1.008000
20483 ca 16833 TPS CA4 20483 -0.1028 12.010000
20484 ha 16833 TPS HA4 20484 0.1262 1.008000
20485 ca 16833 TPS CA3 20485 -0.1548 12.010000
20486 ha 16833 TPS HA3 20486 0.1282 1.008000
20487 ha 16834 TPS HA2 20487 0.1332 1.008000
20488 ca 16834 TPS CA2 20488 -0.0753 12.010000
20489 ca 16834 TPS CA1 20489 -0.361 12.010000
20490 si 16834 TPS Si 20490 1.1 28.085000
20491 ca 16834 TPS CA6 20491 -0.0753 12.010000
20492 ha 16834 TPS HH6 20492 0.1332 1.008000
20493 ca 16834 TPS CA5 20493 -0.1548 12.010000
20494 ha 16834 TPS HA5 20494 0.1282 1.008000
20495 ca 16834 TPS CA4 20495 -0.1028 12.010000
20496 ha 16834 TPS HA4 20496 0.1262 1.008000
20497 ca 16834 TPS CA3 20497 -0.1548 12.010000
20498 ha 16834 TPS HA3 20498 0.1282 1.008000
20499 ha 16835 TPS HA2 20499 0.1332 1.008000
20500 ca 16835 TPS CA2 20500 -0.0753 12.010000
20501 ca 16835 TPS CA1 20501 -0.361 12.010000
20502 si 16835 TPS Si 20502 1.1 28.085000
20503 ca 16835 TPS CA6 20503 -0.0753 12.010000
20504 ha 16835 TPS HH6 20504 0.1332 1.008000
20505 ca 16835 TPS CA5 20505 -0.1548 12.010000
20506 ha 16835 TPS HA5 20506 0.1282 1.008000
20507 ca 16835 TPS CA4 20507 -0.1028 12.010000
20508 ha 16835 TPS HA4 20508 0.1262 1.008000
20509 ca 16835 TPS CA3 20509 -0.1548 12.010000
20510 ha 16835 TPS HA3 20510 0.1282 1.008000
20511 ha 16836 TPS HA2 20511 0.1332 1.008000
20512 ca 16836 TPS CA2 20512 -0.0753 12.010000
20513 ca 16836 TPS CA1 20513 -0.361 12.010000
20514 si 16836 TPS Si 20514 1.1 28.085000
20515 ca 16836 TPS CA6 20515 -0.0753 12.010000
20516 ha 16836 TPS HH6 20516 0.1332 1.008000
20517 ca 16836 TPS CA5 20517 -0.1548 12.010000
20518 ha 16836 TPS HA5 20518 0.1282 1.008000
20519 ca 16836 TPS CA4 20519 -0.1028 12.010000
20520 ha 16836 TPS HA4 20520 0.1262 1.008000
20521 ca 16836 TPS CA3 20521 -0.1548 12.010000
20522 ha 16836 TPS HA3 20522 0.1282 1.008000
20523 ha 16837 TPS HA2 20523 0.1332 1.008000
20524 ca 16837 TPS CA2 20524 -0.0753 12.010000
20525 ca 16837 TPS CA1 20525 -0.361 12.010000
20526 si 16837 TPS Si 20526 1.1 28.085000
20527 ca 16837 TPS CA6 20527 -0.0753 12.010000
20528 ha 16837 TPS HH6 20528 0.1332 1.008000
20529 ca 16837 TPS CA5 20529 -0.1548 12.010000
20530 ha 16837 TPS HA5 20530 0.1282 1.008000
20531 ca 16837 TPS CA4 20531 -0.1028 12.010000
20532 ha 16837 TPS HA4 20532 0.1262 1.008000
20533 ca 16837 TPS CA3 20533 -0.1548 12.010000
20534 ha 16837 TPS HA3 20534 0.1282 1.008000
20535 ha 16838 TPS HA2 20535 0.1332 1.008000
20536 ca 16838 TPS CA2 20536 -0.0753 12.010000
20537 ca 16838 TPS CA1 20537 -0.361 12.010000
20538 si 16838 TPS Si 20538 1.1 28.085000
20539 ca 16838 TPS CA6 20539 -0.0753 12.010000
20540 ha 16838 TPS HH6 20540 0.1332 1.008000
20541 ca 16838 TPS CA5 20541 -0.1548 12.010000
20542 ha 16838 TPS HA5 20542 0.1282 1.008000
20543 ca 16838 TPS CA4 20543 -0.1028 12.010000
20544 ha 16838 TPS HA4 20544 0.1262 1.008000
20545 ca 16838 TPS CA3 20545 -0.1548 12.010000
20546 ha 16838 TPS HA3 20546 0.1282 1.008000
20547 ha 16839 TPS HA2 20547 0.1332 1.008000
20548 ca 16839 TPS CA2 20548 -0.0753 12.010000
20549 ca 16839 TPS CA1 20549 -0.361 12.010000
20550 si 16839 TPS Si 20550 1.1 28.085000
20551 ca 16839 TPS CA6 20551 -0.0753 12.010000
20552 ha 16839 TPS HH6 20552 0.1332 1.008000
20553 ca 16839 TPS CA5 20553 -0.1548 12.010000
20554 ha 16839 TPS HA5 20554 0.1282 1.008000
20555 ca 16839 TPS CA4 20555 -0.1028 12.010000
20556 ha 16839 TPS HA4 20556 0.1262 1.008000
20557 ca 16839 TPS CA3 20557 -0.1548 12.010000
20558 ha 16839 TPS HA3 20558 0.1282 1.008000
20559 ha 16840 TPS HA2 20559 0.1332 1.008000
20560 ca 16840 TPS CA2 20560 -0.0753 12.010000
20561 ca 16840 TPS CA1 20561 -0.361 12.010000
20562 si 16840 TPS Si 20562 1.1 28.085000
20563 ca 16840 TPS CA6 20563 -0.0753 12.010000
20564 ha 16840 TPS HH6 20564 0.1332 1.008000
20565 ca 16840 TPS CA5 20565 -0.1548 12.010000
20566 ha 16840 TPS HA5 20566 0.1282 1.008000
20567 ca 16840 TPS CA4 20567 -0.1028 12.010000
20568 ha 16840 TPS HA4 20568 0.1262 1.008000
20569 ca 16840 TPS CA3 20569 -0.1548 12.010000
20570 ha 16840 TPS HA3 20570 0.1282 1.008000
20571 ha 16841 TPS HA2 20571 0.1332 1.008000
20572 ca 16841 TPS CA2 20572 -0.0753 12.010000
20573 ca 16841 TPS CA1 20573 -0.361 12.010000
20574 si 16841 TPS Si 20574 1.1 28.085000
20575 ca 16841 TPS CA6 20575 -0.0753 12.010000
20576 ha 16841 TPS HH6 20576 0.1332 1.008000
20577 ca 16841 TPS CA5 20577 -0.1548 12.010000
20578 ha 16841 TPS HA5 20578 0.1282 1.008000
20579 ca 16841 TPS CA4 20579 -0.1028 12.010000
20580 ha 16841 TPS HA4 20580 0.1262 1.008000
20581 ca 16841 TPS CA3 20581 -0.1548 12.010000
20582 ha 16841 TPS HA3 20582 0.1282 1.008000
20583 ha 16842 TPS HA2 20583 0.1332 1.008000
20584 ca 16842 TPS CA2 20584 -0.0753 12.010000
20585 ca 16842 TPS CA1 20585 -0.361 12.010000
20586 si 16842 TPS Si 20586 1.1 28.085000
20587 ca 16842 TPS CA6 20587 -0.0753 12.010000
20588 ha 16842 TPS HH6 20588 0.1332 1.008000
20589 ca 16842 TPS CA5 20589 -0.1548 12.010000
20590 ha 16842 TPS HA5 20590 0.1282 1.008000
20591 ca 16842 TPS CA4 20591 -0.1028 12.010000
20592 ha 16842 TPS HA4 20592 0.1262 1.008000
20593 ca 16842 TPS CA3 20593 -0.1548 12.010000
20594 ha 16842 TPS HA3 20594 0.1282 1.008000
20595 ha 16843 TPS HA2 20595 0.1332 1.008000
20596 ca 16843 TPS CA2 20596 -0.0753 12.010000
20597 ca 16843 TPS CA1 20597 -0.361 12.010000
20598 si 16843 TPS Si 20598 1.1 28.085000
20599 ca 16843 TPS CA6 20599 -0.0753 12.010000
20600 ha 16843 TPS HH6 20600 0.1332 1.008000
20601 ca 16843 TPS CA5 20601 -0.1548 12.010000
20602 ha 16843 TPS HA5 20602 0.1282 1.008000
20603 ca 16843 TPS CA4 20603 -0.1028 12.010000
20604 ha 16843 TPS HA4 20604 0.1262 1.008000
20605 ca 16843 TPS CA3 20605 -0.1548 12.010000
20606 ha 16843 TPS HA3 20606 0.1282 1.008000
20607 ha 16844 TPS HA2 20607 0.1332 1.008000
20608 ca 16844 TPS CA2 20608 -0.0753 12.010000
20609 ca 16844 TPS CA1 20609 -0.361 12.010000
20610 si 16844 TPS Si 20610 1.1 28.085000
20611 ca 16844 TPS CA6 20611 -0.0753 12.010000
20612 ha 16844 TPS HH6 20612 0.1332 1.008000
20613 ca 16844 TPS CA5 20613 -0.1548 12.010000
20614 ha 16844 TPS HA5 20614 0.1282 1.008000
20615 ca 16844 TPS CA4 20615 -0.1028 12.010000
20616 ha 16844 TPS HA4 20616 0.1262 1.008000
20617 ca 16844 TPS CA3 20617 -0.1548 12.010000
20618 ha 16844 TPS HA3 20618 0.1282 1.008000
20619 ha 16845 TPS HA2 20619 0.1332 1.008000
20620 ca 16845 TPS CA2 20620 -0.0753 12.010000
20621 ca 16845 TPS CA1 20621 -0.361 12.010000
20622 si 16845 TPS Si 20622 1.1 28.085000
20623 ca 16845 TPS CA6 20623 -0.0753 12.010000
20624 ha 16845 TPS HH6 20624 0.1332 1.008000
20625 ca 16845 TPS CA5 20625 -0.1548 12.010000
20626 ha 16845 TPS HA5 20626 0.1282 1.008000
20627 ca 16845 TPS CA4 20627 -0.1028 12.010000
20628 ha 16845 TPS HA4 20628 0.1262 1.008000
20629 ca 16845 TPS CA3 20629 -0.1548 12.010000
20630 ha 16845 TPS HA3 20630 0.1282 1.008000
20631 ha 16846 TPS HA2 20631 0.1332 1.008000
20632 ca 16846 TPS CA2 20632 -0.0753 12.010000
20633 ca 16846 TPS CA1 20633 -0.361 12.010000
20634 si 16846 TPS Si 20634 1.1 28.085000
20635 ca 16846 TPS CA6 20635 -0.0753 12.010000
20636 ha 16846 TPS HH6 20636 0.1332 1.008000
20637 ca 16846 TPS CA5 20637 -0.1548 12.010000
20638 ha 16846 TPS HA5 20638 0.1282 1.008000
20639 ca 16846 TPS CA4 20639 -0.1028 12.010000
20640 ha 16846 TPS HA4 20640 0.1262 1.008000
20641 ca 16846 TPS CA3 20641 -0.1548 12.010000
20642 ha 16846 TPS HA3 20642 0.1282 1.008000
20643 ha 16847 TPS HA2 20643 0.1332 1.008000
20644 ca 16847 TPS CA2 20644 -0.0753 12.010000
20645 ca 16847 TPS CA1 20645 -0.361 12.010000
20646 si 16847 TPS Si 20646 1.1 28.085000
20647 ca 16847 TPS CA6 20647 -0.0753 12.010000
20648 ha 16847 TPS HH6 20648 0.1332 1.008000
20649 ca 16847 TPS CA5 20649 -0.1548 12.010000
20650 ha 16847 TPS HA5 20650 0.1282 1.008000
20651 ca 16847 TPS CA4 20651 -0.1028 12.010000
20652 ha 16847 TPS HA4 20652 0.1262 1.008000
20653 ca 16847 TPS CA3 20653 -0.1548 12.010000
20654 ha 16847 TPS HA3 20654 0.1282 1.008000
20655 ha 16848 TPS HA2 20655 0.1332 1.008000
20656 ca 16848 TPS CA2 20656 -0.0753 12.010000
20657 ca 16848 TPS CA1 20657 -0.361 12.010000
20658 si 16848 TPS Si 20658 1.1 28.085000
20659 ca 16848 TPS CA6 20659 -0.0753 12.010000
20660 ha 16848 TPS HH6 20660 0.1332 1.008000
20661 ca 16848 TPS CA5 20661 -0.1548 12.010000
20662 ha 16848 TPS HA5 20662 0.1282 1.008000
20663 ca 16848 TPS CA4 20663 -0.1028 12.010000
20664 ha 16848 TPS HA4 20664 0.1262 1.008000
20665 ca 16848 TPS CA3 20665 -0.1548 12.010000
20666 ha 16848 TPS HA3 20666 0.1282 1.008000
20667 ha 16849 TPS HA2 20667 0.1332 1.008000
20668 ca 16849 TPS CA2 20668 -0.0753 12.010000
20669 ca 16849 TPS CA1 20669 -0.361 12.010000
20670 si 16849 TPS Si 20670 1.1 28.085000
20671 ca 16849 TPS CA6 20671 -0.0753 12.010000
20672 ha 16849 TPS HH6 20672 0.1332 1.008000
20673 ca 16849 TPS CA5 20673 -0.1548 12.010000
20674 ha 16849 TPS HA5 20674 0.1282 1.008000
20675 ca 16849 TPS CA4 20675 -0.1028 12.010000
20676 ha 16849 TPS HA4 20676 0.1262 1.008000
20677 ca 16849 TPS CA3 20677 -0.1548 12.010000
20678 ha 16849 TPS HA3 20678 0.1282 1.008000
20679 ha 16850 TPS HA2 20679 0.1332 1.008000
20680 ca 16850 TPS CA2 20680 -0.0753 12.010000
20681 ca 16850 TPS CA1 20681 -0.361 12.010000
20682 si 16850 TPS Si 20682 1.1 28.085000
20683 ca 16850 TPS CA6 20683 -0.0753 12.010000
20684 ha 16850 TPS HH6 20684 0.1332 1.008000
20685 ca 16850 TPS CA5 20685 -0.1548 12.010000
20686 ha 16850 TPS HA5 20686 0.1282 1.008000
20687 ca 16850 TPS CA4 20687 -0.1028 12.010000
20688 ha 16850 TPS HA4 20688 0.1262 1.008000
20689 ca 16850 TPS CA3 20689 -0.1548 12.010000
20690 ha 16850 TPS HA3 20690 0.1282 1.008000
20691 ha 16851 TPS HA2 20691 0.1332 1.008000
20692 ca 16851 TPS CA2 20692 -0.0753 12.010000
20693 ca 16851 TPS CA1 20693 -0.361 12.010000
20694 si 16851 TPS Si 20694 1.1 28.085000
20695 ca 16851 TPS CA6 20695 -0.0753 12.010000
20696 ha 16851 TPS HH6 20696 0.1332 1.008000
20697 ca 16851 TPS CA5 20697 -0.1548 12.010000
20698 ha 16851 TPS HA5 20698 0.1282 1.008000
20699 ca 16851 TPS CA4 20699 -0.1028 12.010000
20700 ha 16851 TPS HA4 20700 0.1262 1.008000
20701 ca 16851 TPS CA3 20701 -0.1548 12.010000
20702 ha 16851 TPS HA3 20702 0.1282 1.008000
20703 ha 16852 TPS HA2 20703 0.1332 1.008000
20704 ca 16852 TPS CA2 20704 -0.0753 12.010000
20705 ca 16852 TPS CA1 20705 -0.361 12.010000
20706 si 16852 TPS Si 20706 1.1 28.085000
20707 ca 16852 TPS CA6 20707 -0.0753 12.010000
20708 ha 16852 TPS HH6 20708 0.1332 1.008000
20709 ca 16852 TPS CA5 20709 -0.1548 12.010000
20710 ha 16852 TPS HA5 20710 0.1282 1.008000
20711 ca 16852 TPS CA4 20711 -0.1028 12.010000
20712 ha 16852 TPS HA4 20712 0.1262 1.008000
20713 ca 16852 TPS CA3 20713 -0.1548 12.010000
20714 ha 16852 TPS HA3 20714 0.1282 1.008000
20715 ha 16853 TPS HA2 20715 0.1332 1.008000
20716 ca 16853 TPS CA2 20716 -0.0753 12.010000
20717 ca 16853 TPS CA1 20717 -0.361 12.010000
20718 si 16853 TPS Si 20718 1.1 28.085000
20719 ca 16853 TPS CA6 20719 -0.0753 12.010000
20720 ha 16853 TPS HH6 20720 0.1332 1.008000
20721 ca 16853 TPS CA5 20721 -0.1548 12.010000
20722 ha 16853 TPS HA5 20722 0.1282 1.008000
20723 ca 16853 TPS CA4 20723 -0.1028 12.010000
20724 ha 16853 TPS HA4 20724 0.1262 1.008000
20725 ca 16853 TPS CA3 20725 -0.1548 12.010000
20726 ha 16853 TPS HA3 20726 0.1282 1.008000
20727 ha 16854 TPS HA2 20727 0.1332 1.008000
20728 ca 16854 TPS CA2 20728 -0.0753 12.010000
20729 ca 16854 TPS CA1 20729 -0.361 12.010000
20730 si 16854 TPS Si 20730 1.1 28.085000
20731 ca 16854 TPS CA6 20731 -0.0753 12.010000
20732 ha 16854 TPS HH6 20732 0.1332 1.008000
20733 ca 16854 TPS CA5 20733 -0.1548 12.010000
20734 ha 16854 TPS HA5 20734 0.1282 1.008000
20735 ca 16854 TPS CA4 20735 -0.1028 12.010000
20736 ha 16854 TPS HA4 20736 0.1262 1.008000
20737 ca 16854 TPS CA3 20737 -0.1548 12.010000
20738 ha 16854 TPS HA3 20738 0.1282 1.008000
20739 ha 16855 TPS HA2 20739 0.1332 1.008000
20740 ca 16855 TPS CA2 20740 -0.0753 12.010000
20741 ca 16855 TPS CA1 20741 -0.361 12.010000
20742 si 16855 TPS Si 20742 1.1 28.085000
20743 ca 16855 TPS CA6 20743 -0.0753 12.010000
20744 ha 16855 TPS HH6 20744 0.1332 1.008000
20745 ca 16855 TPS CA5 20745 -0.1548 12.010000
20746 ha 16855 TPS HA5 20746 0.1282 1.008000
20747 ca 16855 TPS CA4 20747 -0.1028 12.010000
20748 ha 16855 TPS HA4 20748 0.1262 1.008000
20749 ca 16855 TPS CA3 20749 -0.1548 12.010000
20750 ha 16855 TPS HA3 20750 0.1282 1.008000
20751 ha 16856 TPS HA2 20751 0.1332 1.008000
20752 ca 16856 TPS CA2 20752 -0.0753 12.010000
20753 ca 16856 TPS CA1 20753 -0.361 12.010000
20754 si 16856 TPS Si 20754 1.1 28.085000
20755 ca 16856 TPS CA6 20755 -0.0753 12.010000
20756 ha 16856 TPS HH6 20756 0.1332 1.008000
20757 ca 16856 TPS CA5 20757 -0.1548 12.010000
20758 ha 16856 TPS HA5 20758 0.1282 1.008000
20759 ca 16856 TPS CA4 20759 -0.1028 12.010000
20760 ha 16856 TPS HA4 20760 0.1262 1.008000
20761 ca 16856 TPS CA3 20761 -0.1548 12.010000
20762 ha 16856 TPS HA3 20762 0.1282 1.008000
20763 ha 16857 TPS HA2 20763 0.1332 1.008000
20764 ca 16857 TPS CA2 20764 -0.0753 12.010000
20765 ca 16857 TPS CA1 20765 -0.361 12.010000
20766 si 16857 TPS Si 20766 1.1 28.085000
20767 ca 16857 TPS CA6 20767 -0.0753 12.010000
20768 ha 16857 TPS HH6 20768 0.1332 1.008000
20769 ca 16857 TPS CA5 20769 -0.1548 12.010000
20770 ha 16857 TPS HA5 20770 0.1282 1.008000
20771 ca 16857 TPS CA4 20771 -0.1028 12.010000
20772 ha 16857 TPS HA4 20772 0.1262 1.008000
20773 ca 16857 TPS CA3 20773 -0.1548 12.010000
20774 ha 16857 TPS HA3 20774 0.1282 1.008000
20775 ha 16858 TPS HA2 20775 0.1332 1.008000
20776 ca 16858 TPS CA2 20776 -0.0753 12.010000
20777 ca 16858 TPS CA1 20777 -0.361 12.010000
20778 si 16858 TPS Si 20778 1.1 28.085000
20779 ca 16858 TPS CA6 20779 -0.0753 12.010000
20780 ha 16858 TPS HH6 20780 0.1332 1.008000
20781 ca 16858 TPS CA5 20781 -0.1548 12.010000
20782 ha 16858 TPS HA5 20782 0.1282 1.008000
20783 ca 16858 TPS CA4 20783 -0.1028 12.010000
20784 ha 16858 TPS HA4 20784 0.1262 1.008000
20785 ca 16858 TPS CA3 20785 -0.1548 12.010000
20786 ha 16858 TPS HA3 20786 0.1282 1.008000
20787 ha 16859 TPS HA2 20787 0.1332 1.008000
20788 ca 16859 TPS CA2 20788 -0.0753 12.010000
20789 ca 16859 TPS CA1 20789 -0.361 12.010000
20790 si 16859 TPS Si 20790 1.1 28.085000
20791 ca 16859 TPS CA6 20791 -0.0753 12.010000
20792 ha 16859 TPS HH6 20792 0.1332 1.008000
20793 ca 16859 TPS CA5 20793 -0.1548 12.010000
20794 ha 16859 TPS HA5 20794 0.1282 1.008000
20795 ca 16859 TPS CA4 20795 -0.1028 12.010000
20796 ha 16859 TPS HA4 20796 0.1262 1.008000
20797 ca 16859 TPS CA3 20797 -0.1548 12.010000
20798 ha 16859 TPS HA3 20798 0.1282 1.008000
20799 ha 16860 TPS HA2 20799 0.1332 1.008000
20800 ca 16860 TPS CA2 20800 -0.0753 12.010000
20801 ca 16860 TPS CA1 20801 -0.361 12.010000
20802 si 16860 TPS Si 20802 1.1 28.085000
20803 ca 16860 TPS CA6 20803 -0.0753 12.010000
20804 ha 16860 TPS HH6 20804 0.1332 1.008000
20805 ca 16860 TPS CA5 20805 -0.1548 12.010000
20806 ha 16860 TPS HA5 20806 0.1282 1.008000
20807 ca 16860 TPS CA4 20807 -0.1028 12.010000
20808 ha 16860 TPS HA4 20808 0.1262 1.008000
20809 ca 16860 TPS CA3 20809 -0.1548 12.010000
20810 ha 16860 TPS HA3 20810 0.1282 1.008000
20811 ha 16861 TPS HA2 20811 0.1332 1.008000
20812 ca 16861 TPS CA2 20812 -0.0753 12.010000
20813 ca 16861 TPS CA1 20813 -0.361 12.010000
20814 si 16861 TPS Si 20814 1.1 28.085000
20815 ca 16861 TPS CA6 20815 -0.0753 12.010000
20816 ha 16861 TPS HH6 20816 0.1332 1.008000
20817 ca 16861 TPS CA5 20817 -0.1548 12.010000
20818 ha 16861 TPS HA5 20818 0.1282 1.008000
20819 ca 16861 TPS CA4 20819 -0.1028 12.010000
20820 ha 16861 TPS HA4 20820 0.1262 1.008000
20821 ca 16861 TPS CA3 20821 -0.1548 12.010000
20822 ha 16861 TPS HA3 20822 0.1282 1.008000
20823 ha 16862 TPS HA2 20823 0.1332 1.008000
20824 ca 16862 TPS CA2 20824 -0.0753 12.010000
20825 ca 16862 TPS CA1 20825 -0.361 12.010000
20826 si 16862 TPS Si 20826 1.1 28.085000
20827 ca 16862 TPS CA6 20827 -0.0753 12.010000
20828 ha 16862 TPS HH6 20828 0.1332 1.008000
20829 ca 16862 TPS CA5 20829 -0.1548 12.010000
20830 ha 16862 TPS HA5 20830 0.1282 1.008000
20831 ca 16862 TPS CA4 20831 -0.1028 12.010000
20832 ha 16862 TPS HA4 20832 0.1262 1.008000
20833 ca 16862 TPS CA3 20833 -0.1548 12.010000
20834 ha 16862 TPS HA3 20834 0.1282 1.008000
20835 ha 16863 TPS HA2 20835 0.1332 1.008000
20836 ca 16863 TPS CA2 20836 -0.0753 12.010000
20837 ca 16863 TPS CA1 20837 -0.361 12.010000
20838 si 16863 TPS Si 20838 1.1 28.085000
20839 ca 16863 TPS CA6 20839 -0.0753 12.010000
20840 ha 16863 TPS HH6 20840 0.1332 1.008000
20841 ca 16863 TPS CA5 20841 -0.1548 12.010000
20842 ha 16863 TPS HA5 20842 0.1282 1.008000
20843 ca 16863 TPS CA4 20843 -0.1028 12.010000
20844 ha 16863 TPS HA4 20844 0.1262 1.008000
20845 ca 16863 TPS CA3 20845 -0.1548 12.010000
20846 ha 16863 TPS HA3 20846 0.1282 1.008000
20847 ha 16864 TPS HA2 20847 0.1332 1.008000
20848 ca 16864 TPS CA2 20848 -0.0753 12.010000
20849 ca 16864 TPS CA1 20849 -0.361 12.010000
20850 si 16864 TPS Si 20850 1.1 28.085000
20851 ca 16864 TPS CA6 20851 -0.0753 12.010000
20852 ha 16864 TPS HH6 20852 0.1332 1.008000
20853 ca 16864 TPS CA5 20853 -0.1548 12.010000
20854 ha 16864 TPS HA5 20854 0.1282 1.008000
20855 ca 16864 TPS CA4 20855 -0.1028 12.010000
20856 ha 16864 TPS HA4 20856 0.1262 1.008000
20857 ca 16864 TPS CA3 20857 -0.1548 12.010000
20858 ha 16864 TPS HA3 20858 0.1282 1.008000
20859 ha 16865 TPS HA2 20859 0.1332 1.008000
20860 ca 16865 TPS CA2 20860 -0.0753 12.010000
20861 ca 16865 TPS CA1 20861 -0.361 12.010000
20862 si 16865 TPS Si 20862 1.1 28.085000
20863 ca 16865 TPS CA6 20863 -0.0753 12.010000
20864 ha 16865 TPS HH6 20864 0.1332 1.008000
20865 ca 16865 TPS CA5 20865 -0.1548 12.010000
20866 ha 16865 TPS HA5 20866 0.1282 1.008000
20867 ca 16865 TPS CA4 20867 -0.1028 12.010000
20868 ha 16865 TPS HA4 20868 0.1262 1.008000
20869 ca 16865 TPS CA3 20869 -0.1548 12.010000
20870 ha 16865 TPS HA3 20870 0.1282 1.008000
20871 ha 16866 TPS HA2 20871 0.1332 1.008000
20872 ca 16866 TPS CA2 20872 -0.0753 12.010000
20873 ca 16866 TPS CA1 20873 -0.361 12.010000
20874 si 16866 TPS Si 20874 1.1 28.085000
20875 ca 16866 TPS CA6 20875 -0.0753 12.010000
20876 ha 16866 TPS HH6 20876 0.1332 1.008000
20877 ca 16866 TPS CA5 20877 -0.1548 12.010000
20878 ha 16866 TPS HA5 20878 0.1282 1.008000
20879 ca 16866 TPS CA4 20879 -0.1028 12.010000
20880 ha 16866 TPS HA4 20880 0.1262 1.008000
20881 ca 16866 TPS CA3 20881 -0.1548 12.010000
20882 ha 16866 TPS HA3 20882 0.1282 1.008000
20883 ha 16867 TPS HA2 20883 0.1332 1.008000
20884 ca 16867 TPS CA2 20884 -0.0753 12.010000
20885 ca 16867 TPS CA1 20885 -0.361 12.010000
20886 si 16867 TPS Si 20886 1.1 28.085000
20887 ca 16867 TPS CA6 20887 -0.0753 12.010000
20888 ha 16867 TPS HH6 20888 0.1332 1.008000
20889 ca 16867 TPS CA5 20889 -0.1548 12.010000
20890 ha 16867 TPS HA5 20890 0.1282 1.008000
20891 ca 16867 TPS CA4 20891 -0.1028 12.010000
20892 ha 16867 TPS HA4 20892 0.1262 1.008000
20893 ca 16867 TPS CA3 20893 -0.1548 12.010000
20894 ha 16867 TPS HA3 20894 0.1282 1.008000
20895 ha 16868 TPS HA2 20895 0.1332 1.008000
20896 ca 16868 TPS CA2 20896 -0.0753 12.010000
20897 ca 16868 TPS CA1 20897 -0.361 12.010000
20898 si 16868 TPS Si 20898 1.1 28.085000
20899 ca 16868 TPS CA6 20899 -0.0753 12.010000
20900 ha 16868 TPS HH6 20900 0.1332 1.008000
20901 ca 16868 TPS CA5 20901 -0.1548 12.010000
20902 ha 16868 TPS HA5 20902 0.1282 1.008000
20903 ca 16868 TPS CA4 20903 -0.1028 12.010000
20904 ha 16868 TPS HA4 20904 0.1262 1.008000
20905 ca 16868 TPS CA3 20905 -0.1548 12.010000
20906 ha 16868 TPS HA3 20906 0.1282 1.008000
20907 ha 16869 TPS HA2 20907 0.1332 1.008000
20908 ca 16869 TPS CA2 20908 -0.0753 12.010000
20909 ca 16869 TPS CA1 20909 -0.361 12.010000
20910 si 16869 TPS Si 20910 1.1 28.085000
20911 ca 16869 TPS CA6 20911 -0.0753 12.010000
20912 ha 16869 TPS HH6 20912 0.1332 1.008000
20913 ca 16869 TPS CA5 20913 -0.1548 12.010000
20914 ha 16869 TPS HA5 20914 0.1282 1.008000
20915 ca 16869 TPS CA4 20915 -0.1028 12.010000
20916 ha 16869 TPS HA4 20916 0.1262 1.008000
20917 ca 16869 TPS CA3 20917 -0.1548 12.010000
20918 ha 16869 TPS HA3 20918 0.1282 1.008000
20919 ha 16870 TPS HA2 20919 0.1332 1.008000
20920 ca 16870 TPS CA2 20920 -0.0753 12.010000
20921 ca 16870 TPS CA1 20921 -0.361 12.010000
20922 si 16870 TPS Si 20922 1.1 28.085000
20923 ca 16870 TPS CA6 20923 -0.0753 12.010000
20924 ha 16870 TPS HH6 20924 0.1332 1.008000
20925 ca 16870 TPS CA5 20925 -0.1548 12.010000
20926 ha 16870 TPS HA5 20926 0.1282 1.008000
20927 ca 16870 TPS CA4 20927 -0.1028 12.010000
20928 ha 16870 TPS HA4 20928 0.1262 1.008000
20929 ca 16870 TPS CA3 20929 -0.1548 12.010000
20930 ha 16870 TPS HA3 20930 0.1282 1.008000
20931 ha 16871 TPS HA2 20931 0.1332 1.008000
20932 ca 16871 TPS CA2 20932 -0.0753 12.010000
20933 ca 16871 TPS CA1 20933 -0.361 12.010000
20934 si 16871 TPS Si 20934 1.1 28.085000
20935 ca 16871 TPS CA6 20935 -0.0753 12.010000
20936 ha 16871 TPS HH6 20936 0.1332 1.008000
20937 ca 16871 TPS CA5 20937 -0.1548 12.010000
20938 ha 16871 TPS HA5 20938 0.1282 1.008000
20939 ca 16871 TPS CA4 20939 -0.1028 12.010000
20940 ha 16871 TPS HA4 20940 0.1262 1.008000
20941 ca 16871 TPS CA3 20941 -0.1548 12.010000
20942 ha 16871 TPS HA3 20942 0.1282 1.008000
20943 ha 16872 TPS HA2 20943 0.1332 1.008000
20944 ca 16872 TPS CA2 20944 -0.0753 12.010000
20945 ca 16872 TPS CA1 20945 -0.361 12.010000
20946 si 16872 TPS Si 20946 1.1 28.085000
20947 ca 16872 TPS CA6 20947 -0.0753 12.010000
20948 ha 16872 TPS HH6 20948 0.1332 1.008000
20949 ca 16872 TPS CA5 20949 -0.1548 12.010000
20950 ha 16872 TPS HA5 20950 0.1282 1.008000
20951 ca 16872 TPS CA4 20951 -0.1028 12.010000
20952 ha 16872 TPS HA4 20952 0.1262 1.008000
20953 ca 16872 TPS CA3 20953 -0.1548 12.010000
20954 ha 16872 TPS HA3 20954 0.1282 1.008000
20955 ha 16873 TPS HA2 20955 0.1332 1.008000
20956 ca 16873 TPS CA2 20956 -0.0753 12.010000
20957 ca 16873 TPS CA1 20957 -0.361 12.010000
20958 si 16873 TPS Si 20958 1.1 28.085000
20959 ca 16873 TPS CA6 20959 -0.0753 12.010000
20960 ha 16873 TPS HH6 20960 0.1332 1.008000
20961 ca 16873 TPS CA5 20961 -0.1548 12.010000
20962 ha 16873 TPS HA5 20962 0.1282 1.008000
20963 ca 16873 TPS CA4 20963 -0.1028 12.010000
20964 ha 16873 TPS HA4 20964 0.1262 1.008000
20965 ca 16873 TPS CA3 20965 -0.1548 12.010000
20966 ha 16873 TPS HA3 20966 0.1282 1.008000
20967 ha 16874 TPS HA2 20967 0.1332 1.008000
20968 ca 16874 TPS CA2 20968 -0.0753 12.010000
20969 ca 16874 TPS CA1 20969 -0.361 12.010000
20970 si 16874 TPS Si 20970 1.1 28.085000
20971 ca 16874 TPS CA6 20971 -0.0753 12.010000
20972 ha 16874 TPS HH6 20972 0.1332 1.008000
20973 ca 16874 TPS CA5 20973 -0.1548 12.010000
20974 ha 16874 TPS HA5 20974 0.1282 1.008000
20975 ca 16874 TPS CA4 20975 -0.1028 12.010000
20976 ha 16874 TPS HA4 20976 0.1262 1.008000
20977 ca 16874 TPS CA3 20977 -0.1548 12.010000
20978 ha 16874 TPS HA3 20978 0.1282 1.008000
20979 ha 16875 TPS HA2 20979 0.1332 1.008000
20980 ca 16875 TPS CA2 20980 -0.0753 12.010000
20981 ca 16875 TPS CA1 20981 -0.361 12.010000
20982 si 16875 TPS Si 20982 1.1 28.085000
20983 ca 16875 TPS CA6 20983 -0.0753 12.010000
20984 ha 16875 TPS HH6 20984 0.1332 1.008000
20985 ca 16875 TPS CA5 20985 -0.1548 12.010000
20986 ha 16875 TPS HA5 20986 0.1282 1.008000
20987 ca 16875 TPS CA4 20987 -0.1028 12.010000
20988 ha 16875 TPS HA4 20988 0.1262 1.008000
20989 ca 16875 TPS CA3 20989 -0.1548 12.010000
20990 ha 16875 TPS HA3 20990 0.1282 1.008000
20991 ha 16876 TPS HA2 20991 0.1332 1.008000
20992 ca 16876 TPS CA2 20992 -0.0753 12.010000
20993 ca 16876 TPS CA1 20993 -0.361 12.010000
20994 si 16876 TPS Si 20994 1.1 28.085000
20995 ca 16876 TPS CA6 20995 -0.0753 12.010000
20996 ha 16876 TPS HH6 20996 0.1332 1.008000
20997 ca 16876 TPS CA5 20997 -0.1548 12.010000
20998 ha 16876 TPS HA5 20998 0.1282 1.008000
20999 ca 16876 TPS CA4 20999 -0.1028 12.010000
21000 ha 16876 TPS HA4 21000 0.1262 1.008000
21001 ca 16876 TPS CA3 21001 -0.1548 12.010000
21002 ha 16876 TPS HA3 21002 0.1282 1.008000
21003 ha 16877 TPS HA2 21003 0.1332 1.008000
21004 ca 16877 TPS CA2 21004 -0.0753 12.010000
21005 ca 16877 TPS CA1 21005 -0.361 12.010000
21006 si 16877 TPS Si 21006 1.1 28.085000
21007 ca 16877 TPS CA6 21007 -0.0753 12.010000
21008 ha 16877 TPS HH6 21008 0.1332 1.008000
21009 ca 16877 TPS CA5 21009 -0.1548 12.010000
21010 ha 16877 TPS HA5 21010 0.1282 1.008000
21011 ca 16877 TPS CA4 21011 -0.1028 12.010000
21012 ha 16877 TPS HA4 21012 0.1262 1.008000
21013 ca 16877 TPS CA3 21013 -0.1548 12.010000
21014 ha 16877 TPS HA3 21014 0.1282 1.008000
21015 ha 16878 TPS HA2 21015 0.1332 1.008000
21016 ca 16878 TPS CA2 21016 -0.0753 12.010000
21017 ca 16878 TPS CA1 21017 -0.361 12.010000
21018 si 16878 TPS Si 21018 1.1 28.085000
21019 ca 16878 TPS CA6 21019 -0.0753 12.010000
21020 ha 16878 TPS HH6 21020 0.1332 1.008000
21021 ca 16878 TPS CA5 21021 -0.1548 12.010000
21022 ha 16878 TPS HA5 21022 0.1282 1.008000
21023 ca 16878 TPS CA4 21023 -0.1028 12.010000
21024 ha 16878 TPS HA4 21024 0.1262 1.008000
21025 ca 16878 TPS CA3 21025 -0.1548 12.010000
21026 ha 16878 TPS HA3 21026 0.1282 1.008000
21027 ha 16879 TPS HA2 21027 0.1332 1.008000
21028 ca 16879 TPS CA2 21028 -0.0753 12.010000
21029 ca 16879 TPS CA1 21029 -0.361 12.010000
21030 si 16879 TPS Si 21030 1.1 28.085000
21031 ca 16879 TPS CA6 21031 -0.0753 12.010000
21032 ha 16879 TPS HH6 21032 0.1332 1.008000
21033 ca 16879 TPS CA5 21033 -0.1548 12.010000
21034 ha 16879 TPS HA5 21034 0.1282 1.008000
21035 ca 16879 TPS CA4 21035 -0.1028 12.010000
21036 ha 16879 TPS HA4 21036 0.1262 1.008000
21037 ca 16879 TPS CA3 21037 -0.1548 12.010000
21038 ha 16879 TPS HA3 21038 0.1282 1.008000
21039 ha 16880 TPS HA2 21039 0.1332 1.008000
21040 ca 16880 TPS CA2 21040 -0.0753 12.010000
21041 ca 16880 TPS CA1 21041 -0.361 12.010000
21042 si 16880 TPS Si 21042 1.1 28.085000
21043 ca 16880 TPS CA6 21043 -0.0753 12.010000
21044 ha 16880 TPS HH6 21044 0.1332 1.008000
21045 ca 16880 TPS CA5 21045 -0.1548 12.010000
21046 ha 16880 TPS HA5 21046 0.1282 1.008000
21047 ca 16880 TPS CA4 21047 -0.1028 12.010000
21048 ha 16880 TPS HA4 21048 0.1262 1.008000
21049 ca 16880 TPS CA3 21049 -0.1548 12.010000
21050 ha 16880 TPS HA3 21050 0.1282 1.008000
21051 ha 16881 TPS HA2 21051 0.1332 1.008000
21052 ca 16881 TPS CA2 21052 -0.0753 12.010000
21053 ca 16881 TPS CA1 21053 -0.361 12.010000
21054 si 16881 TPS Si 21054 1.1 28.085000
21055 ca 16881 TPS CA6 21055 -0.0753 12.010000
21056 ha 16881 TPS HH6 21056 0.1332 1.008000
21057 ca 16881 TPS CA5 21057 -0.1548 12.010000
21058 ha 16881 TPS HA5 21058 0.1282 1.008000
21059 ca 16881 TPS CA4 21059 -0.1028 12.010000
21060 ha 16881 TPS HA4 21060 0.1262 1.008000
21061 ca 16881 TPS CA3 21061 -0.1548 12.010000
21062 ha 16881 TPS HA3 21062 0.1282 1.008000
21063 ha 16882 TPS HA2 21063 0.1332 1.008000
21064 ca 16882 TPS CA2 21064 -0.0753 12.010000
21065 ca 16882 TPS CA1 21065 -0.361 12.010000
21066 si 16882 TPS Si 21066 1.1 28.085000
21067 ca 16882 TPS CA6 21067 -0.0753 12.010000
21068 ha 16882 TPS HH6 21068 0.1332 1.008000
21069 ca 16882 TPS CA5 21069 -0.1548 12.010000
21070 ha 16882 TPS HA5 21070 0.1282 1.008000
21071 ca 16882 TPS CA4 21071 -0.1028 12.010000
21072 ha 16882 TPS HA4 21072 0.1262 1.008000
21073 ca 16882 TPS CA3 21073 -0.1548 12.010000
21074 ha 16882 TPS HA3 21074 0.1282 1.008000
21075 ha 16883 TPS HA2 21075 0.1332 1.008000
21076 ca 16883 TPS CA2 21076 -0.0753 12.010000
21077 ca 16883 TPS CA1 21077 -0.361 12.010000
21078 si 16883 TPS Si 21078 1.1 28.085000
21079 ca 16883 TPS CA6 21079 -0.0753 12.010000
21080 ha 16883 TPS HH6 21080 0.1332 1.008000
21081 ca 16883 TPS CA5 21081 -0.1548 12.010000
21082 ha 16883 TPS HA5 21082 0.1282 1.008000
21083 ca 16883 TPS CA4 21083 -0.1028 12.010000
21084 ha 16883 TPS HA4 21084 0.1262 1.008000
21085 ca 16883 TPS CA3 21085 -0.1548 12.010000
21086 ha 16883 TPS HA3 21086 0.1282 1.008000
21087 ha 16884 TPS HA2 21087 0.1332 1.008000
21088 ca 16884 TPS CA2 21088 -0.0753 12.010000
21089 ca 16884 TPS CA1 21089 -0.361 12.010000
21090 si 16884 TPS Si 21090 1.1 28.085000
21091 ca 16884 TPS CA6 21091 -0.0753 12.010000
21092 ha 16884 TPS HH6 21092 0.1332 1.008000
21093 ca 16884 TPS CA5 21093 -0.1548 12.010000
21094 ha 16884 TPS HA5 21094 0.1282 1.008000
21095 ca 16884 TPS CA4 21095 -0.1028 12.010000
21096 ha 16884 TPS HA4 21096 0.1262 1.008000
21097 ca 16884 TPS CA3 21097 -0.1548 12.010000
21098 ha 16884 TPS HA3 21098 0.1282 1.008000
21099 ha 16885 TPS HA2 21099 0.1332 1.008000
21100 ca 16885 TPS CA2 21100 -0.0753 12.010000
21101 ca 16885 TPS CA1 21101 -0.361 12.010000
21102 si 16885 TPS Si 21102 1.1 28.085000
21103 ca 16885 TPS CA6 21103 -0.0753 12.010000
21104 ha 16885 TPS HH6 21104 0.1332 1.008000
21105 ca 16885 TPS CA5 21105 -0.1548 12.010000
21106 ha 16885 TPS HA5 21106 0.1282 1.008000
21107 ca 16885 TPS CA4 21107 -0.1028 12.010000
21108 ha 16885 TPS HA4 21108 0.1262 1.008000
21109 ca 16885 TPS CA3 21109 -0.1548 12.010000
21110 ha 16885 TPS HA3 21110 0.1282 1.008000
21111 ha 16886 TPS HA2 21111 0.1332 1.008000
21112 ca 16886 TPS CA2 21112 -0.0753 12.010000
21113 ca 16886 TPS CA1 21113 -0.361 12.010000
21114 si 16886 TPS Si 21114 1.1 28.085000
21115 ca 16886 TPS CA6 21115 -0.0753 12.010000
21116 ha 16886 TPS HH6 21116 0.1332 1.008000
21117 ca 16886 TPS CA5 21117 -0.1548 12.010000
21118 ha 16886 TPS HA5 21118 0.1282 1.008000
21119 ca 16886 TPS CA4 21119 -0.1028 12.010000
21120 ha 16886 TPS HA4 21120 0.1262 1.008000
21121 ca 16886 TPS CA3 21121 -0.1548 12.010000
21122 ha 16886 TPS HA3 21122 0.1282 1.008000
21123 ha 16887 TPS HA2 21123 0.1332 1.008000
21124 ca 16887 TPS CA2 21124 -0.0753 12.010000
21125 ca 16887 TPS CA1 21125 -0.361 12.010000
21126 si 16887 TPS Si 21126 1.1 28.085000
21127 ca 16887 TPS CA6 21127 -0.0753 12.010000
21128 ha 16887 TPS HH6 21128 0.1332 1.008000
21129 ca 16887 TPS CA5 21129 -0.1548 12.010000
21130 ha 16887 TPS HA5 21130 0.1282 1.008000
21131 ca 16887 TPS CA4 21131 -0.1028 12.010000
21132 ha 16887 TPS HA4 21132 0.1262 1.008000
21133 ca 16887 TPS CA3 21133 -0.1548 12.010000
21134 ha 16887 TPS HA3 21134 0.1282 1.008000
21135 ha 16888 TPS HA2 21135 0.1332 1.008000
21136 ca 16888 TPS CA2 21136 -0.0753 12.010000
21137 ca 16888 TPS CA1 21137 -0.361 12.010000
21138 si 16888 TPS Si 21138 1.1 28.085000
21139 ca 16888 TPS CA6 21139 -0.0753 12.010000
21140 ha 16888 TPS HH6 21140 0.1332 1.008000
21141 ca 16888 TPS CA5 21141 -0.1548 12.010000
21142 ha 16888 TPS HA5 21142 0.1282 1.008000
21143 ca 16888 TPS CA4 21143 -0.1028 12.010000
21144 ha 16888 TPS HA4 21144 0.1262 1.008000
21145 ca 16888 TPS CA3 21145 -0.1548 12.010000
21146 ha 16888 TPS HA3 21146 0.1282 1.008000
21147 ha 16889 TPS HA2 21147 0.1332 1.008000
21148 ca 16889 TPS CA2 21148 -0.0753 12.010000
21149 ca 16889 TPS CA1 21149 -0.361 12.010000
21150 si 16889 TPS Si 21150 1.1 28.085000
21151 ca 16889 TPS CA6 21151 -0.0753 12.010000
21152 ha 16889 TPS HH6 21152 0.1332 1.008000
21153 ca 16889 TPS CA5 21153 -0.1548 12.010000
21154 ha 16889 TPS HA5 21154 0.1282 1.008000
21155 ca 16889 TPS CA4 21155 -0.1028 12.010000
21156 ha 16889 TPS HA4 21156 0.1262 1.008000
21157 ca 16889 TPS CA3 21157 -0.1548 12.010000
21158 ha 16889 TPS HA3 21158 0.1282 1.008000
21159 ha 16890 TPS HA2 21159 0.1332 1.008000
21160 ca 16890 TPS CA2 21160 -0.0753 12.010000
21161 ca 16890 TPS CA1 21161 -0.361 12.010000
21162 si 16890 TPS Si 21162 1.1 28.085000
21163 ca 16890 TPS CA6 21163 -0.0753 12.010000
21164 ha 16890 TPS HH6 21164 0.1332 1.008000
21165 ca 16890 TPS CA5 21165 -0.1548 12.010000
21166 ha 16890 TPS HA5 21166 0.1282 1.008000
21167 ca 16890 TPS CA4 21167 -0.1028 12.010000
21168 ha 16890 TPS HA4 21168 0.1262 1.008000
21169 ca 16890 TPS CA3 21169 -0.1548 12.010000
21170 ha 16890 TPS HA3 21170 0.1282 1.008000
21171 ha 16891 TPS HA2 21171 0.1332 1.008000
21172 ca 16891 TPS CA2 21172 -0.0753 12.010000
21173 ca 16891 TPS CA1 21173 -0.361 12.010000
21174 si 16891 TPS Si 21174 1.1 28.085000
21175 ca 16891 TPS CA6 21175 -0.0753 12.010000
21176 ha 16891 TPS HH6 21176 0.1332 1.008000
21177 ca 16891 TPS CA5 21177 -0.1548 12.010000
21178 ha 16891 TPS HA5 21178 0.1282 1.008000
21179 ca 16891 TPS CA4 21179 -0.1028 12.010000
21180 ha 16891 TPS HA4 21180 0.1262 1.008000
21181 ca 16891 TPS CA3 21181 -0.1548 12.010000
21182 ha 16891 TPS HA3 21182 0.1282 1.008000
21183 ha 16892 TPS HA2 21183 0.1332 1.008000
21184 ca 16892 TPS CA2 21184 -0.0753 12.010000
21185 ca 16892 TPS CA1 21185 -0.361 12.010000
21186 si 16892 TPS Si 21186 1.1 28.085000
21187 ca 16892 TPS CA6 21187 -0.0753 12.010000
21188 ha 16892 TPS HH6 21188 0.1332 1.008000
21189 ca 16892 TPS CA5 21189 -0.1548 12.010000
21190 ha 16892 TPS HA5 21190 0.1282 1.008000
21191 ca 16892 TPS CA4 21191 -0.1028 12.010000
21192 ha 16892 TPS HA4 21192 0.1262 1.008000
21193 ca 16892 TPS CA3 21193 -0.1548 12.010000
21194 ha 16892 TPS HA3 21194 0.1282 1.008000
21195 ha 16893 TPS HA2 21195 0.1332 1.008000
21196 ca 16893 TPS CA2 21196 -0.0753 12.010000
21197 ca 16893 TPS CA1 21197 -0.361 12.010000
21198 si 16893 TPS Si 21198 1.1 28.085000
21199 ca 16893 TPS CA6 21199 -0.0753 12.010000
21200 ha 16893 TPS HH6 21200 0.1332 1.008000
21201 ca 16893 TPS CA5 21201 -0.1548 12.010000
21202 ha 16893 TPS HA5 21202 0.1282 1.008000
21203 ca 16893 TPS CA4 21203 -0.1028 12.010000
21204 ha 16893 TPS HA4 21204 0.1262 1.008000
21205 ca 16893 TPS CA3 21205 -0.1548 12.010000
21206 ha 16893 TPS HA3 21206 0.1282 1.008000
21207 ha 16894 TPS HA2 21207 0.1332 1.008000
21208 ca 16894 TPS CA2 21208 -0.0753 12.010000
21209 ca 16894 TPS CA1 21209 -0.361 12.010000
21210 si 16894 TPS Si 21210 1.1 28.085000
21211 ca 16894 TPS CA6 21211 -0.0753 12.010000
21212 ha 16894 TPS HH6 21212 0.1332 1.008000
21213 ca 16894 TPS CA5 21213 -0.1548 12.010000
21214 ha 16894 TPS HA5 21214 0.1282 1.008000
21215 ca 16894 TPS CA4 21215 -0.1028 12.010000
21216 ha 16894 TPS HA4 21216 0.1262 1.008000
21217 ca 16894 TPS CA3 21217 -0.1548 12.010000
21218 ha 16894 TPS HA3 21218 0.1282 1.008000
21219 ha 16895 TPS HA2 21219 0.1332 1.008000
21220 ca 16895 TPS CA2 21220 -0.0753 12.010000
21221 ca 16895 TPS CA1 21221 -0.361 12.010000
21222 si 16895 TPS Si 21222 1.1 28.085000
21223 ca 16895 TPS CA6 21223 -0.0753 12.010000
21224 ha 16895 TPS HH6 21224 0.1332 1.008000
21225 ca 16895 TPS CA5 21225 -0.1548 12.010000
21226 ha 16895 TPS HA5 21226 0.1282 1.008000
21227 ca 16895 TPS CA4 21227 -0.1028 12.010000
21228 ha 16895 TPS HA4 21228 0.1262 1.008000
21229 ca 16895 TPS CA3 21229 -0.1548 12.010000
21230 ha 16895 TPS HA3 21230 0.1282 1.008000
21231 ha 16896 TPS HA2 21231 0.1332 1.008000
21232 ca 16896 TPS CA2 21232 -0.0753 12.010000
21233 ca 16896 TPS CA1 21233 -0.361 12.010000
21234 si 16896 TPS Si 21234 1.1 28.085000
21235 ca 16896 TPS CA6 21235 -0.0753 12.010000
21236 ha 16896 TPS HH6 21236 0.1332 1.008000
21237 ca 16896 TPS CA5 21237 -0.1548 12.010000
21238 ha 16896 TPS HA5 21238 0.1282 1.008000
21239 ca 16896 TPS CA4 21239 -0.1028 12.010000
21240 ha 16896 TPS HA4 21240 0.1262 1.008000
21241 ca 16896 TPS CA3 21241 -0.1548 12.010000
21242 ha 16896 TPS HA3 21242 0.1282 1.008000
21243 ha 16897 TPS HA2 21243 0.1332 1.008000
21244 ca 16897 TPS CA2 21244 -0.0753 12.010000
21245 ca 16897 TPS CA1 21245 -0.361 12.010000
21246 si 16897 TPS Si 21246 1.1 28.085000
21247 ca 16897 TPS CA6 21247 -0.0753 12.010000
21248 ha 16897 TPS HH6 21248 0.1332 1.008000
21249 ca 16897 TPS CA5 21249 -0.1548 12.010000
21250 ha 16897 TPS HA5 21250 0.1282 1.008000
21251 ca 16897 TPS CA4 21251 -0.1028 12.010000
21252 ha 16897 TPS HA4 21252 0.1262 1.008000
21253 ca 16897 TPS CA3 21253 -0.1548 12.010000
21254 ha 16897 TPS HA3 21254 0.1282 1.008000
21255 ha 16898 TPS HA2 21255 0.1332 1.008000
21256 ca 16898 TPS CA2 21256 -0.0753 12.010000
21257 ca 16898 TPS CA1 21257 -0.361 12.010000
21258 si 16898 TPS Si 21258 1.1 28.085000
21259 ca 16898 TPS CA6 21259 -0.0753 12.010000
21260 ha 16898 TPS HH6 21260 0.1332 1.008000
21261 ca 16898 TPS CA5 21261 -0.1548 12.010000
21262 ha 16898 TPS HA5 21262 0.1282 1.008000
21263 ca 16898 TPS CA4 21263 -0.1028 12.010000
21264 ha 16898 TPS HA4 21264 0.1262 1.008000
21265 ca 16898 TPS CA3 21265 -0.1548 12.010000
21266 ha 16898 TPS HA3 21266 0.1282 1.008000
21267 ha 16899 TPS HA2 21267 0.1332 1.008000
21268 ca 16899 TPS CA2 21268 -0.0753 12.010000
21269 ca 16899 TPS CA1 21269 -0.361 12.010000
21270 si 16899 TPS Si 21270 1.1 28.085000
21271 ca 16899 TPS CA6 21271 -0.0753 12.010000
21272 ha 16899 TPS HH6 21272 0.1332 1.008000
21273 ca 16899 TPS CA5 21273 -0.1548 12.010000
21274 ha 16899 TPS HA5 21274 0.1282 1.008000
21275 ca 16899 TPS CA4 21275 -0.1028 12.010000
21276 ha 16899 TPS HA4 21276 0.1262 1.008000
21277 ca 16899 TPS CA3 21277 -0.1548 12.010000
21278 ha 16899 TPS HA3 21278 0.1282 1.008000
21279 ha 16900 TPS HA2 21279 0.1332 1.008000
21280 ca 16900 TPS CA2 21280 -0.0753 12.010000
21281 ca 16900 TPS CA1 21281 -0.361 12.010000
21282 si 16900 TPS Si 21282 1.1 28.085000
21283 ca 16900 TPS CA6 21283 -0.0753 12.010000
21284 ha 16900 TPS HH6 21284 0.1332 1.008000
21285 ca 16900 TPS CA5 21285 -0.1548 12.010000
21286 ha 16900 TPS HA5 21286 0.1282 1.008000
21287 ca 16900 TPS CA4 21287 -0.1028 12.010000
21288 ha 16900 TPS HA4 21288 0.1262 1.008000
21289 ca 16900 TPS CA3 21289 -0.1548 12.010000
21290 ha 16900 TPS HA3 21290 0.1282 1.008000
21291 ha 16901 TPS HA2 21291 0.1332 1.008000
21292 ca 16901 TPS CA2 21292 -0.0753 12.010000
21293 ca 16901 TPS CA1 21293 -0.361 12.010000
21294 si 16901 TPS Si 21294 1.1 28.085000
21295 ca 16901 TPS CA6 21295 -0.0753 12.010000
21296 ha 16901 TPS HH6 21296 0.1332 1.008000
21297 ca 16901 TPS CA5 21297 -0.1548 12.010000
21298 ha 16901 TPS HA5 21298 0.1282 1.008000
21299 ca 16901 TPS CA4 21299 -0.1028 12.010000
21300 ha 16901 TPS HA4 21300 0.1262 1.008000
21301 ca 16901 TPS CA3 21301 -0.1548 12.010000
21302 ha 16901 TPS HA3 21302 0.1282 1.008000
21303 ha 16902 TPS HA2 21303 0.1332 1.008000
21304 ca 16902 TPS CA2 21304 -0.0753 12.010000
21305 ca 16902 TPS CA1 21305 -0.361 12.010000
21306 si 16902 TPS Si 21306 1.1 28.085000
21307 ca 16902 TPS CA6 21307 -0.0753 12.010000
21308 ha 16902 TPS HH6 21308 0.1332 1.008000
21309 ca 16902 TPS CA5 21309 -0.1548 12.010000
21310 ha 16902 TPS HA5 21310 0.1282 1.008000
21311 ca 16902 TPS CA4 21311 -0.1028 12.010000
21312 ha 16902 TPS HA4 21312 0.1262 1.008000
21313 ca 16902 TPS CA3 21313 -0.1548 12.010000
21314 ha 16902 TPS HA3 21314 0.1282 1.008000
21315 ha 16903 TPS HA2 21315 0.1332 1.008000
21316 ca 16903 TPS CA2 21316 -0.0753 12.010000
21317 ca 16903 TPS CA1 21317 -0.361 12.010000
21318 si 16903 TPS Si 21318 1.1 28.085000
21319 ca 16903 TPS CA6 21319 -0.0753 12.010000
21320 ha 16903 TPS HH6 21320 0.1332 1.008000
21321 ca 16903 TPS CA5 21321 -0.1548 12.010000
21322 ha 16903 TPS HA5 21322 0.1282 1.008000
21323 ca 16903 TPS CA4 21323 -0.1028 12.010000
21324 ha 16903 TPS HA4 21324 0.1262 1.008000
21325 ca 16903 TPS CA3 21325 -0.1548 12.010000
21326 ha 16903 TPS HA3 21326 0.1282 1.008000
21327 ha 16904 TPS HA2 21327 0.1332 1.008000
21328 ca 16904 TPS CA2 21328 -0.0753 12.010000
21329 ca 16904 TPS CA1 21329 -0.361 12.010000
21330 si 16904 TPS Si 21330 1.1 28.085000
21331 ca 16904 TPS CA6 21331 -0.0753 12.010000
21332 ha 16904 TPS HH6 21332 0.1332 1.008000
21333 ca 16904 TPS CA5 21333 -0.1548 12.010000
21334 ha 16904 TPS HA5 21334 0.1282 1.008000
21335 ca 16904 TPS CA4 21335 -0.1028 12.010000
21336 ha 16904 TPS HA4 21336 0.1262 1.008000
21337 ca 16904 TPS CA3 21337 -0.1548 12.010000
21338 ha 16904 TPS HA3 21338 0.1282 1.008000
21339 ha 16905 TPS HA2 21339 0.1332 1.008000
21340 ca 16905 TPS CA2 21340 -0.0753 12.010000
21341 ca 16905 TPS CA1 21341 -0.361 12.010000
21342 si 16905 TPS Si 21342 1.1 28.085000
21343 ca 16905 TPS CA6 21343 -0.0753 12.010000
21344 ha 16905 TPS HH6 21344 0.1332 1.008000
21345 ca 16905 TPS CA5 21345 -0.1548 12.010000
21346 ha 16905 TPS HA5 21346 0.1282 1.008000
21347 ca 16905 TPS CA4 21347 -0.1028 12.010000
21348 ha 16905 TPS HA4 21348 0.1262 1.008000
21349 ca 16905 TPS CA3 21349 -0.1548 12.010000
21350 ha 16905 TPS HA3 21350 0.1282 1.008000
21351 ha 16906 TPS HA2 21351 0.1332 1.008000
21352 ca 16906 TPS CA2 21352 -0.0753 12.010000
21353 ca 16906 TPS CA1 21353 -0.361 12.010000
21354 si 16906 TPS Si 21354 1.1 28.085000
21355 ca 16906 TPS CA6 21355 -0.0753 12.010000
21356 ha 16906 TPS HH6 21356 0.1332 1.008000
21357 ca 16906 TPS CA5 21357 -0.1548 12.010000
21358 ha 16906 TPS HA5 21358 0.1282 1.008000
21359 ca 16906 TPS CA4 21359 -0.1028 12.010000
21360 ha 16906 TPS HA4 21360 0.1262 1.008000
21361 ca 16906 TPS CA3 21361 -0.1548 12.010000
21362 ha 16906 TPS HA3 21362 0.1282 1.008000
21363 ha 16907 TPS HA2 21363 0.1332 1.008000
21364 ca 16907 TPS CA2 21364 -0.0753 12.010000
21365 ca 16907 TPS CA1 21365 -0.361 12.010000
21366 si 16907 TPS Si 21366 1.1 28.085000
21367 ca 16907 TPS CA6 21367 -0.0753 12.010000
21368 ha 16907 TPS HH6 21368 0.1332 1.008000
21369 ca 16907 TPS CA5 21369 -0.1548 12.010000
21370 ha 16907 TPS HA5 21370 0.1282 1.008000
21371 ca 16907 TPS CA4 21371 -0.1028 12.010000
21372 ha 16907 TPS HA4 21372 0.1262 1.008000
21373 ca 16907 TPS CA3 21373 -0.1548 12.010000
21374 ha 16907 TPS HA3 21374 0.1282 1.008000
21375 ha 16908 TPS HA2 21375 0.1332 1.008000
21376 ca 16908 TPS CA2 21376 -0.0753 12.010000
21377 ca 16908 TPS CA1 21377 -0.361 12.010000
21378 si 16908 TPS Si 21378 1.1 28.085000
21379 ca 16908 TPS CA6 21379 -0.0753 12.010000
21380 ha 16908 TPS HH6 21380 0.1332 1.008000
21381 ca 16908 TPS CA5 21381 -0.1548 12.010000
21382 ha 16908 TPS HA5 21382 0.1282 1.008000
21383 ca 16908 TPS CA4 21383 -0.1028 12.010000
21384 ha 16908 TPS HA4 21384 0.1262 1.008000
21385 ca 16908 TPS CA3 21385 -0.1548 12.010000
21386 ha 16908 TPS HA3 21386 0.1282 1.008000
21387 ha 16909 TPS HA2 21387 0.1332 1.008000
21388 ca 16909 TPS CA2 21388 -0.0753 12.010000
21389 ca 16909 TPS CA1 21389 -0.361 12.010000
21390 si 16909 TPS Si 21390 1.1 28.085000
21391 ca 16909 TPS CA6 21391 -0.0753 12.010000
21392 ha 16909 TPS HH6 21392 0.1332 1.008000
21393 ca 16909 TPS CA5 21393 -0.1548 12.010000
21394 ha 16909 TPS HA5 21394 0.1282 1.008000
21395 ca 16909 TPS CA4 21395 -0.1028 12.010000
21396 ha 16909 TPS HA4 21396 0.1262 1.008000
21397 ca 16909 TPS CA3 21397 -0.1548 12.010000
21398 ha 16909 TPS HA3 21398 0.1282 1.008000
21399 ha 16910 TPS HA2 21399 0.1332 1.008000
21400 ca 16910 TPS CA2 21400 -0.0753 12.010000
21401 ca 16910 TPS CA1 21401 -0.361 12.010000
21402 si 16910 TPS Si 21402 1.1 28.085000
21403 ca 16910 TPS CA6 21403 -0.0753 12.010000
21404 ha 16910 TPS HH6 21404 0.1332 1.008000
21405 ca 16910 TPS CA5 21405 -0.1548 12.010000
21406 ha 16910 TPS HA5 21406 0.1282 1.008000
21407 ca 16910 TPS CA4 21407 -0.1028 12.010000
21408 ha 16910 TPS HA4 21408 0.1262 1.008000
21409 ca 16910 TPS CA3 21409 -0.1548 12.010000
21410 ha 16910 TPS HA3 21410 0.1282 1.008000
21411 ha 16911 TPS HA2 21411 0.1332 1.008000
21412 ca 16911 TPS CA2 21412 -0.0753 12.010000
21413 ca 16911 TPS CA1 21413 -0.361 12.010000
21414 si 16911 TPS Si 21414 1.1 28.085000
21415 ca 16911 TPS CA6 21415 -0.0753 12.010000
21416 ha 16911 TPS HH6 21416 0.1332 1.008000
21417 ca 16911 TPS CA5 21417 -0.1548 12.010000
21418 ha 16911 TPS HA5 21418 0.1282 1.008000
21419 ca 16911 TPS CA4 21419 -0.1028 12.010000
21420 ha 16911 TPS HA4 21420 0.1262 1.008000
21421 ca 16911 TPS CA3 21421 -0.1548 12.010000
21422 ha 16911 TPS HA3 21422 0.1282 1.008000
21423 ha 16912 TPS HA2 21423 0.1332 1.008000
21424 ca 16912 TPS CA2 21424 -0.0753 12.010000
21425 ca 16912 TPS CA1 21425 -0.361 12.010000
21426 si 16912 TPS Si 21426 1.1 28.085000
21427 ca 16912 TPS CA6 21427 -0.0753 12.010000
21428 ha 16912 TPS HH6 21428 0.1332 1.008000
21429 ca 16912 TPS CA5 21429 -0.1548 12.010000
21430 ha 16912 TPS HA5 21430 0.1282 1.008000
21431 ca 16912 TPS CA4 21431 -0.1028 12.010000
21432 ha 16912 TPS HA4 21432 0.1262 1.008000
21433 ca 16912 TPS CA3 21433 -0.1548 12.010000
21434 ha 16912 TPS HA3 21434 0.1282 1.008000
21435 ha 16913 TPS HA2 21435 0.1332 1.008000
21436 ca 16913 TPS CA2 21436 -0.0753 12.010000
21437 ca 16913 TPS CA1 21437 -0.361 12.010000
21438 si 16913 TPS Si 21438 1.1 28.085000
21439 ca 16913 TPS CA6 21439 -0.0753 12.010000
21440 ha 16913 TPS HH6 21440 0.1332 1.008000
21441 ca 16913 TPS CA5 21441 -0.1548 12.010000
21442 ha 16913 TPS HA5 21442 0.1282 1.008000
21443 ca 16913 TPS CA4 21443 -0.1028 12.010000
21444 ha 16913 TPS HA4 21444 0.1262 1.008000
21445 ca 16913 TPS CA3 21445 -0.1548 12.010000
21446 ha 16913 TPS HA3 21446 0.1282 1.008000
21447 ha 16914 TPS HA2 21447 0.1332 1.008000
21448 ca 16914 TPS CA2 21448 -0.0753 12.010000
21449 ca 16914 TPS CA1 21449 -0.361 12.010000
21450 si 16914 TPS Si 21450 1.1 28.085000
21451 ca 16914 TPS CA6 21451 -0.0753 12.010000
21452 ha 16914 TPS HH6 21452 0.1332 1.008000
21453 ca 16914 TPS CA5 21453 -0.1548 12.010000
21454 ha 16914 TPS HA5 21454 0.1282 1.008000
21455 ca 16914 TPS CA4 21455 -0.1028 12.010000
21456 ha 16914 TPS HA4 21456 0.1262 1.008000
21457 ca 16914 TPS CA3 21457 -0.1548 12.010000
21458 ha 16914 TPS HA3 21458 0.1282 1.008000
21459 ha 16915 TPS HA2 21459 0.1332 1.008000
21460 ca 16915 TPS CA2 21460 -0.0753 12.010000
21461 ca 16915 TPS CA1 21461 -0.361 12.010000
21462 si 16915 TPS Si 21462 1.1 28.085000
21463 ca 16915 TPS CA6 21463 -0.0753 12.010000
21464 ha 16915 TPS HH6 21464 0.1332 1.008000
21465 ca 16915 TPS CA5 21465 -0.1548 12.010000
21466 ha 16915 TPS HA5 21466 0.1282 1.008000
21467 ca 16915 TPS CA4 21467 -0.1028 12.010000
21468 ha 16915 TPS HA4 21468 0.1262 1.008000
21469 ca 16915 TPS CA3 21469 -0.1548 12.010000
21470 ha 16915 TPS HA3 21470 0.1282 1.008000
21471 ha 16916 TPS HA2 21471 0.1332 1.008000
21472 ca 16916 TPS CA2 21472 -0.0753 12.010000
21473 ca 16916 TPS CA1 21473 -0.361 12.010000
21474 si 16916 TPS Si 21474 1.1 28.085000
21475 ca 16916 TPS CA6 21475 -0.0753 12.010000
21476 ha 16916 TPS HH6 21476 0.1332 1.008000
21477 ca 16916 TPS CA5 21477 -0.1548 12.010000
21478 ha 16916 TPS HA5 21478 0.1282 1.008000
21479 ca 16916 TPS CA4 21479 -0.1028 12.010000
21480 ha 16916 TPS HA4 21480 0.1262 1.008000
21481 ca 16916 TPS CA3 21481 -0.1548 12.010000
21482 ha 16916 TPS HA3 21482 0.1282 1.008000
21483 ha 16917 TPS HA2 21483 0.1332 1.008000
21484 ca 16917 TPS CA2 21484 -0.0753 12.010000
21485 ca 16917 TPS CA1 21485 -0.361 12.010000
21486 si 16917 TPS Si 21486 1.1 28.085000
21487 ca 16917 TPS CA6 21487 -0.0753 12.010000
21488 ha 16917 TPS HH6 21488 0.1332 1.008000
21489 ca 16917 TPS CA5 21489 -0.1548 12.010000
21490 ha 16917 TPS HA5 21490 0.1282 1.008000
21491 ca 16917 TPS CA4 21491 -0.1028 12.010000
21492 ha 16917 TPS HA4 21492 0.1262 1.008000
21493 ca 16917 TPS CA3 21493 -0.1548 12.010000
21494 ha 16917 TPS HA3 21494 0.1282 1.008000
21495 ha 16918 TPS HA2 21495 0.1332 1.008000
21496 ca 16918 TPS CA2 21496 -0.0753 12.010000
21497 ca 16918 TPS CA1 21497 -0.361 12.010000
21498 si 16918 TPS Si 21498 1.1 28.085000
21499 ca 16918 TPS CA6 21499 -0.0753 12.010000
21500 ha 16918 TPS HH6 21500 0.1332 1.008000
21501 ca 16918 TPS CA5 21501 -0.1548 12.010000
21502 ha 16918 TPS HA5 21502 0.1282 1.008000
21503 ca 16918 TPS CA4 21503 -0.1028 12.010000
21504 ha 16918 TPS HA4 21504 0.1262 1.008000
21505 ca 16918 TPS CA3 21505 -0.1548 12.010000
21506 ha 16918 TPS HA3 21506 0.1282 1.008000
21507 SI 16919 SL Si1 21507 1.100000 28.08600
21508 OA 16919 SL O1 21508 -0.675000 15.99940
21509 HG 16919 SL H1 21509 0.400000 2.01600
21510 SI 16920 SL Si1 21510 1.100000 28.08600
21511 OA 16920 SL O1 21511 -0.675000 15.99940
21512 HG 16920 SL H1 21512 0.400000 2.01600
21513 SI 16921 SL Si1 21513 1.100000 28.08600
21514 OA 16921 SL O1 21514 -0.675000 15.99940
21515 HG 16921 SL H1 21515 0.400000 2.01600
21516 SI 16922 SL Si1 21516 1.100000 28.08600
21517 OA 16922 SL O1 21517 -0.675000 15.99940
21518 HG 16922 SL H1 21518 0.400000 2.01600
21519 SI 16923 SL Si1 21519 1.100000 28.08600
21520 OA 16923 SL O1 21520 -0.675000 15.99940
21521 HG 16923 SL H1 21521 0.400000 2.01600
21522 SI 16924 SL Si1 21522 1.100000 28.08600
21523 OA 16924 SL O1 21523 -0.675000 15.99940
21524 HG 16924 SL H1 21524 0.400000 2.01600
21525 SI 16925 SL Si1 21525 1.100000 28.08600
21526 OA 16925 SL O1 21526 -0.675000 15.99940
21527 HG 16925 SL H1 21527 0.400000 2.01600
21528 SI 16926 SL Si1 21528 1.100000 28.08600
21529 OA 16926 SL O1 21529 -0.675000 15.99940
21530 HG 16926 SL H1 21530 0.400000 2.01600
21531 SI 16927 SL Si1 21531 1.100000 28.08600
21532 OA 16927 SL O1 21532 -0.675000 15.99940
21533 HG 16927 SL H1 21533 0.400000 2.01600
21534 SI 16928 SL Si1 21534 1.100000 28.08600
21535 OA 16928 SL O1 21535 -0.675000 15.99940
21536 HG 16928 SL H1 21536 0.400000 2.01600
21537 SI 16929 SL Si1 21537 1.100000 28.08600
21538 OA 16929 SL O1 21538 -0.675000 15.99940
21539 HG 16929 SL H1 21539 0.400000 2.01600
21540 SI 16930 SL Si1 21540 1.100000 28.08600
21541 OA 16930 SL O1 21541 -0.675000 15.99940
21542 HG 16930 SL H1 21542 0.400000 2.01600
21543 SI 16931 SL Si1 21543 1.100000 28.08600
21544 OA 16931 SL O1 21544 -0.675000 15.99940
21545 HG 16931 SL H1 21545 0.400000 2.01600
21546 SI 16932 SL Si1 21546 1.100000 28.08600
21547 OA 16932 SL O1 21547 -0.675000 15.99940
21548 HG 16932 SL H1 21548 0.400000 2.01600
21549 SI 16933 SL Si1 21549 1.100000 28.08600
21550 OA 16933 SL O1 21550 -0.675000 15.99940
21551 HG 16933 SL H1 21551 0.400000 2.01600
21552 SI 16934 SL Si1 21552 1.100000 28.08600
21553 OA 16934 SL O1 21553 -0.675000 15.99940
21554 HG 16934 SL H1 21554 0.400000 2.01600
21555 SI 16935 SL Si1 21555 1.100000 28.08600
21556 OA 16935 SL O1 21556 -0.675000 15.99940
21557 HG 16935 SL H1 21557 0.400000 2.01600
21558 SI 16936 SL Si1 21558 1.100000 28.08600
21559 OA 16936 SL O1 21559 -0.675000 15.99940
21560 HG 16936 SL H1 21560 0.400000 2.01600
21561 SI 16937 SL Si1 21561 1.100000 28.08600
21562 OA 16937 SL O1 21562 -0.675000 15.99940
21563 HG 16937 SL H1 21563 0.400000 2.01600
21564 SI 16938 SL Si1 21564 1.100000 28.08600
21565 OA 16938 SL O1 21565 -0.675000 15.99940
21566 HG 16938 SL H1 21566 0.400000 2.01600
21567 SI 16939 SL Si1 21567 1.100000 28.08600
21568 OA 16939 SL O1 21568 -0.675000 15.99940
21569 HG 16939 SL H1 21569 0.400000 2.01600
21570 SI 16940 SL Si1 21570 1.100000 28.08600
21571 OA 16940 SL O1 21571 -0.675000 15.99940
21572 HG 16940 SL H1 21572 0.400000 2.01600
21573 SI 16941 SL Si1 21573 1.100000 28.08600
21574 OA 16941 SL O1 21574 -0.675000 15.99940
21575 HG 16941 SL H1 21575 0.400000 2.01600
21576 SI 16942 SL Si1 21576 1.100000 28.08600
21577 OA 16942 SL O1 21577 -0.675000 15.99940
21578 HG 16942 SL H1 21578 0.400000 2.01600
21579 SI 16943 SL Si1 21579 1.100000 28.08600
21580 OA 16943 SL O1 21580 -0.675000 15.99940
21581 HG 16943 SL H1 21581 0.400000 2.01600
21582 SI 16944 SL Si1 21582 1.100000 28.08600
21583 OA 16944 SL O1 21583 -0.675000 15.99940
21584 HG 16944 SL H1 21584 0.400000 2.01600
21585 SI 16945 SL Si1 21585 1.100000 28.08600
21586 OA 16945 SL O1 21586 -0.675000 15.99940
21587 HG 16945 SL H1 21587 0.400000 2.01600
21588 SI 16946 SL Si1 21588 1.100000 28.08600
21589 OA 16946 SL O1 21589 -0.675000 15.99940
21590 HG 16946 SL H1 21590 0.400000 2.01600
21591 SI 16947 SL Si1 21591 1.100000 28.08600
21592 OA 16947 SL O1 21592 -0.675000 15.99940
21593 HG 16947 SL H1 21593 0.400000 2.01600
21594 SI 16948 SL Si1 21594 1.100000 28.08600
21595 OA 16948 SL O1 21595 -0.675000 15.99940
21596 HG 16948 SL H1 21596 0.400000 2.01600
21597 SI 16949 SL Si1 21597 1.100000 28.08600
21598 OA 16949 SL O1 21598 -0.675000 15.99940
21599 HG 16949 SL H1 21599 0.400000 2.01600
21600 SI 16950 SL Si1 21600 1.100000 28.08600
21601 OA 16950 SL O1 21601 -0.675000 15.99940
21602 HG 16950 SL H1 21602 0.400000 2.01600
21603 SI 16951 SL Si1 21603 1.100000 28.08600
21604 OA 16951 SL O1 21604 -0.675000 15.99940
21605 HG 16951 SL H1 21605 0.400000 2.01600
21606 SI 16952 SL Si1 21606 1.100000 28.08600
21607 OA 16952 SL O1 21607 -0.675000 15.99940
21608 HG 16952 SL H1 21608 0.400000 2.01600
21609 SI 16953 SL Si1 21609 1.100000 28.08600
21610 OA 16953 SL O1 21610 -0.675000 15.99940
21611 HG 16953 SL H1 21611 0.400000 2.01600
21612 SI 16954 SL Si1 21612 1.100000 28.08600
21613 OA 16954 SL O1 21613 -0.675000 15.99940
21614 HG 16954 SL H1 21614 0.400000 2.01600
21615 SI 16955 SL Si1 21615 1.100000 28.08600
21616 OA 16955 SL O1 21616 -0.675000 15.99940
21617 HG 16955 SL H1 21617 0.400000 2.01600
21618 SI 16956 SL Si1 21618 1.100000 28.08600
21619 OA 16956 SL O1 21619 -0.675000 15.99940
21620 HG 16956 SL H1 21620 0.400000 2.01600
21621 SI 16957 SL Si1 21621 1.100000 28.08600
21622 OA 16957 SL O1 21622 -0.675000 15.99940
21623 HG 16957 SL H1 21623 0.400000 2.01600
21624 SI 16958 SL Si1 21624 1.100000 28.08600
21625 OA 16958 SL O1 21625 -0.675000 15.99940
21626 HG 16958 SL H1 21626 0.400000 2.01600
21627 SI 16959 SL Si1 21627 1.100000 28.08600
21628 OA 16959 SL O1 21628 -0.675000 15.99940
21629 HG 16959 SL H1 21629 0.400000 2.01600
21630 SI 16960 SL Si1 21630 1.100000 28.08600
21631 OA 16960 SL O1 21631 -0.675000 15.99940
21632 HG 16960 SL H1 21632 0.400000 2.01600
21633 SI 16961 SL Si1 21633 1.100000 28.08600
21634 OA 16961 SL O1 21634 -0.675000 15.99940
21635 HG 16961 SL H1 21635 0.400000 2.01600
21636 SI 16962 SL Si1 21636 1.100000 28.08600
21637 OA 16962 SL O1 21637 -0.675000 15.99940
21638 HG 16962 SL H1 21638 0.400000 2.01600
21639 SI 16963 SL Si1 21639 1.100000 28.08600
21640 OA 16963 SL O1 21640 -0.675000 15.99940
21641 HG 16963 SL H1 21641 0.400000 2.01600
21642 SI 16964 SL Si1 21642 1.100000 28.08600
21643 OA 16964 SL O1 21643 -0.675000 15.99940
21644 HG 16964 SL H1 21644 0.400000 2.01600
21645 SI 16965 SL Si1 21645 1.100000 28.08600
21646 OA 16965 SL O1 21646 -0.675000 15.99940
21647 HG 16965 SL H1 21647 0.400000 2.01600
21648 SI 16966 SL Si1 21648 1.100000 28.08600
21649 OA 16966 SL O1 21649 -0.675000 15.99940
21650 HG 16966 SL H1 21650 0.400000 2.01600
21651 SI 16967 SL Si1 21651 1.100000 28.08600
21652 OA 16967 SL O1 21652 -0.675000 15.99940
21653 HG 16967 SL H1 21653 0.400000 2.01600
21654 SI 16968 SL Si1 21654 1.100000 28.08600
21655 OA 16968 SL O1 21655 -0.675000 15.99940
21656 HG 16968 SL H1 21656 0.400000 2.01600
21657 SI 16969 SL Si1 21657 1.100000 28.08600
21658 OA 16969 SL O1 21658 -0.675000 15.99940
21659 HG 16969 SL H1 21659 0.400000 2.01600
21660 SI 16970 SL Si1 21660 1.100000 28.08600
21661 OA 16970 SL O1 21661 -0.675000 15.99940
21662 HG 16970 SL H1 21662 0.400000 2.01600
21663 SI 16971 SL Si1 21663 1.100000 28.08600
21664 OA 16971 SL O1 21664 -0.675000 15.99940
21665 HG 16971 SL H1 21665 0.400000 2.01600
21666 SI 16972 SL Si1 21666 1.100000 28.08600
21667 OA 16972 SL O1 21667 -0.675000 15.99940
21668 HG 16972 SL H1 21668 0.400000 2.01600
21669 SI 16973 SL Si1 21669 1.100000 28.08600
21670 OA 16973 SL O1 21670 -0.675000 15.99940
21671 HG 16973 SL H1 21671 0.400000 2.01600
21672 SI 16974 SL Si1 21672 1.100000 28.08600
21673 OA 16974 SL O1 21673 -0.675000 15.99940
21674 HG 16974 SL H1 21674 0.400000 2.01600
21675 SI 16975 SL Si1 21675 1.100000 28.08600
21676 OA 16975 SL O1 21676 -0.675000 15.99940
21677 HG 16975 SL H1 21677 0.400000 2.01600
21678 SI 16976 SL Si1 21678 1.100000 28.08600
21679 OA 16976 SL O1 21679 -0.675000 15.99940
21680 HG 16976 SL H1 21680 0.400000 2.01600
21681 SI 16977 SL Si1 21681 1.100000 28.08600
21682 OA 16977 SL O1 21682 -0.675000 15.99940
21683 HG 16977 SL H1 21683 0.400000 2.01600
21684 SI 16978 SL Si1 21684 1.100000 28.08600
21685 OA 16978 SL O1 21685 -0.675000 15.99940
21686 HG 16978 SL H1 21686 0.400000 2.01600
21687 SI 16979 SL Si1 21687 1.100000 28.08600
21688 OA 16979 SL O1 21688 -0.675000 15.99940
21689 HG 16979 SL H1 21689 0.400000 2.01600
21690 SI 16980 SL Si1 21690 1.100000 28.08600
21691 OA 16980 SL O1 21691 -0.675000 15.99940
21692 HG 16980 SL H1 21692 0.400000 2.01600
21693 SI 16981 SL Si1 21693 1.100000 28.08600
21694 OA 16981 SL O1 21694 -0.675000 15.99940
21695 HG 16981 SL H1 21695 0.400000 2.01600
21696 SI 16982 SL Si1 21696 1.100000 28.08600
21697 OA 16982 SL O1 21697 -0.675000 15.99940
21698 HG 16982 SL H1 21698 0.400000 2.01600
21699 SI 16983 SL Si1 21699 1.100000 28.08600
21700 OA 16983 SL O1 21700 -0.675000 15.99940
21701 HG 16983 SL H1 21701 0.400000 2.01600
21702 SI 16984 SL Si1 21702 1.100000 28.08600
21703 OA 16984 SL O1 21703 -0.675000 15.99940
21704 HG 16984 SL H1 21704 0.400000 2.01600
21705 SI 16985 SL Si1 21705 1.100000 28.08600
21706 OA 16985 SL O1 21706 -0.675000 15.99940
21707 HG 16985 SL H1 21707 0.400000 2.01600
21708 SI 16986 SL Si1 21708 1.100000 28.08600
21709 OA 16986 SL O1 21709 -0.675000 15.99940
21710 HG 16986 SL H1 21710 0.400000 2.01600
21711 SI 16987 SL Si1 21711 1.100000 28.08600
21712 OA 16987 SL O1 21712 -0.675000 15.99940
21713 HG 16987 SL H1 21713 0.400000 2.01600
21714 SI 16988 SL Si1 21714 1.100000 28.08600
21715 OA 16988 SL O1 21715 -0.675000 15.99940
21716 HG 16988 SL H1 21716 0.400000 2.01600
21717 SI 16989 SL Si1 21717 1.100000 28.08600
21718 OA 16989 SL O1 21718 -0.675000 15.99940
21719 HG 16989 SL H1 21719 0.400000 2.01600
21720 SI 16990 SL Si1 21720 1.100000 28.08600
21721 OA 16990 SL O1 21721 -0.675000 15.99940
21722 HG 16990 SL H1 21722 0.400000 2.01600
21723 SI 16991 SL Si1 21723 1.100000 28.08600
21724 OA 16991 SL O1 21724 -0.675000 15.99940
21725 HG 16991 SL H1 21725 0.400000 2.01600
21726 SI 16992 SL Si1 21726 1.100000 28.08600
21727 OA 16992 SL O1 21727 -0.675000 15.99940
21728 HG 16992 SL H1 21728 0.400000 2.01600
21729 SI 16993 SL Si1 21729 1.100000 28.08600
21730 OA 16993 SL O1 21730 -0.675000 15.99940
21731 HG 16993 SL H1 21731 0.400000 2.01600
21732 SI 16994 SL Si1 21732 1.100000 28.08600
21733 OA 16994 SL O1 21733 -0.675000 15.99940
21734 HG 16994 SL H1 21734 0.400000 2.01600
21735 SI 16995 SL Si1 21735 1.100000 28.08600
21736 OA 16995 SL O1 21736 -0.675000 15.99940
21737 HG 16995 SL H1 21737 0.400000 2.01600
21738 SI 16996 SL Si1 21738 1.100000 28.08600
21739 OA 16996 SL O1 21739 -0.675000 15.99940
21740 HG 16996 SL H1 21740 0.400000 2.01600
21741 SI 16997 SL Si1 21741 1.100000 28.08600
21742 OA 16997 SL O1 21742 -0.675000 15.99940
21743 HG 16997 SL H1 21743 0.400000 2.01600
21744 SI 16998 SL Si1 21744 1.100000 28.08600
21745 OA 16998 SL O1 21745 -0.675000 15.99940
21746 HG 16998 SL H1 21746 0.400000 2.01600
21747 SI 16999 SL Si1 21747 1.100000 28.08600
21748 OA 16999 SL O1 21748 -0.675000 15.99940
21749 HG 16999 SL H1 21749 0.400000 2.01600
21750 SI 17000 SL Si1 21750 1.100000 28.08600
21751 OA 17000 SL O1 21751 -0.675000 15.99940
21752 HG 17000 SL H1 21752 0.400000 2.01600
21753 SI 17001 SL Si1 21753 1.100000 28.08600
21754 OA 17001 SL O1 21754 -0.675000 15.99940
21755 HG 17001 SL H1 21755 0.400000 2.01600
21756 SI 17002 SL Si1 21756 1.100000 28.08600
21757 OA 17002 SL O1 21757 -0.675000 15.99940
21758 HG 17002 SL H1 21758 0.400000 2.01600
21759 SI 17003 SL Si1 21759 1.100000 28.08600
21760 OA 17003 SL O1 21760 -0.675000 15.99940
21761 HG 17003 SL H1 21761 0.400000 2.01600
21762 SI 17004 SL Si1 21762 1.100000 28.08600
21763 OA 17004 SL O1 21763 -0.675000 15.99940
21764 HG 17004 SL H1 21764 0.400000 2.01600
21765 SI 17005 SL Si1 21765 1.100000 28.08600
21766 OA 17005 SL O1 21766 -0.675000 15.99940
21767 HG 17005 SL H1 21767 0.400000 2.01600
21768 SI 17006 SL Si1 21768 1.100000 28.08600
21769 OA 17006 SL O1 21769 -0.675000 15.99940
21770 HG 17006 SL H1 21770 0.400000 2.01600
21771 SI 17007 SL Si1 21771 1.100000 28.08600
21772 OA 17007 SL O1 21772 -0.675000 15.99940
21773 HG 17007 SL H1 21773 0.400000 2.01600
21774 SI 17008 SL Si1 21774 1.100000 28.08600
21775 OA 17008 SL O1 21775 -0.675000 15.99940
21776 HG 17008 SL H1 21776 0.400000 2.01600
21777 SI 17009 SL Si1 21777 1.100000 28.08600
21778 OA 17009 SL O1 21778 -0.675000 15.99940
21779 HG 17009 SL H1 21779 0.400000 2.01600
21780 SI 17010 SL Si1 21780 1.100000 28.08600
21781 OA 17010 SL O1 21781 -0.675000 15.99940
21782 HG 17010 SL H1 21782 0.400000 2.01600
21783 SI 17011 SL Si1 21783 1.100000 28.08600
21784 OA 17011 SL O1 21784 -0.675000 15.99940
21785 HG 17011 SL H1 21785 0.400000 2.01600
21786 SI 17012 SL Si1 21786 1.100000 28.08600
21787 OA 17012 SL O1 21787 -0.675000 15.99940
21788 HG 17012 SL H1 21788 0.400000 2.01600
21789 SI 17013 SL Si1 21789 1.100000 28.08600
21790 OA 17013 SL O1 21790 -0.675000 15.99940
21791 HG 17013 SL H1 21791 0.400000 2.01600
21792 SI 17014 SL Si1 21792 1.100000 28.08600
21793 OA 17014 SL O1 21793 -0.675000 15.99940
21794 HG 17014 SL H1 21794 0.400000 2.01600
21795 SI 17015 SL Si1 21795 1.100000 28.08600
21796 OA 17015 SL O1 21796 -0.675000 15.99940
21797 HG 17015 SL H1 21797 0.400000 2.01600
21798 SI 17016 SL Si1 21798 1.100000 28.08600
21799 OA 17016 SL O1 21799 -0.675000 15.99940
21800 HG 17016 SL H1 21800 0.400000 2.01600
21801 SI 17017 SL Si1 21801 1.100000 28.08600
21802 OA 17017 SL O1 21802 -0.675000 15.99940
21803 HG 17017 SL H1 21803 0.400000 2.01600
21804 SI 17018 SL Si1 21804 1.100000 28.08600
21805 OA 17018 SL O1 21805 -0.675000 15.99940
21806 HG 17018 SL H1 21806 0.400000 2.01600
21807 SI 17019 SL Si1 21807 1.100000 28.08600
21808 OA 17019 SL O1 21808 -0.675000 15.99940
21809 HG 17019 SL H1 21809 0.400000 2.01600
21810 SI 17020 SL Si1 21810 1.100000 28.08600
21811 OA 17020 SL O1 21811 -0.675000 15.99940
21812 HG 17020 SL H1 21812 0.400000 2.01600
21813 SI 17021 SL Si1 21813 1.100000 28.08600
21814 OA 17021 SL O1 21814 -0.675000 15.99940
21815 HG 17021 SL H1 21815 0.400000 2.01600
21816 SI 17022 SL Si1 21816 1.100000 28.08600
21817 OA 17022 SL O1 21817 -0.675000 15.99940
21818 HG 17022 SL H1 21818 0.400000 2.01600
21819 SI 17023 SL Si1 21819 1.100000 28.08600
21820 OA 17023 SL O1 21820 -0.675000 15.99940
21821 HG 17023 SL H1 21821 0.400000 2.01600
21822 SI 17024 SL Si1 21822 1.100000 28.08600
21823 OA 17024 SL O1 21823 -0.675000 15.99940
21824 HG 17024 SL H1 21824 0.400000 2.01600
21825 SI 17025 SL Si1 21825 1.100000 28.08600
21826 OA 17025 SL O1 21826 -0.675000 15.99940
21827 HG 17025 SL H1 21827 0.400000 2.01600
21828 SI 17026 SL Si1 21828 1.100000 28.08600
21829 OA 17026 SL O1 21829 -0.675000 15.99940
21830 HG 17026 SL H1 21830 0.400000 2.01600
21831 SI 17027 SL Si1 21831 1.100000 28.08600
21832 OA 17027 SL O1 21832 -0.675000 15.99940
21833 HG 17027 SL H1 21833 0.400000 2.01600
21834 SI 17028 SL Si1 21834 1.100000 28.08600
21835 OA 17028 SL O1 21835 -0.675000 15.99940
21836 HG 17028 SL H1 21836 0.400000 2.01600
21837 SI 17029 SL Si1 21837 1.100000 28.08600
21838 OA 17029 SL O1 21838 -0.675000 15.99940
21839 HG 17029 SL H1 21839 0.400000 2.01600
21840 SI 17030 SL Si1 21840 1.100000 28.08600
21841 OA 17030 SL O1 21841 -0.675000 15.99940
21842 HG 17030 SL H1 21842 0.400000 2.01600
21843 SI 17031 SL Si1 21843 1.100000 28.08600
21844 OA 17031 SL O1 21844 -0.675000 15.99940
21845 HG 17031 SL H1 21845 0.400000 2.01600
21846 SI 17032 SL Si1 21846 1.100000 28.08600
21847 OA 17032 SL O1 21847 -0.675000 15.99940
21848 HG 17032 SL H1 21848 0.400000 2.01600
21849 SI 17033 SL Si1 21849 1.100000 28.08600
21850 OA 17033 SL O1 21850 -0.675000 15.99940
21851 HG 17033 SL H1 21851 0.400000 2.01600
21852 SI 17034 SL Si1 21852 1.100000 28.08600
21853 OA 17034 SL O1 21853 -0.675000 15.99940
21854 HG 17034 SL H1 21854 0.400000 2.01600
21855 SI 17035 SL Si1 21855 1.100000 28.08600
21856 OA 17035 SL O1 21856 -0.675000 15.99940
21857 HG 17035 SL H1 21857 0.400000 2.01600
21858 SI 17036 SL Si1 21858 1.100000 28.08600
21859 OA 17036 SL O1 21859 -0.675000 15.99940
21860 HG 17036 SL H1 21860 0.400000 2.01600
21861 SI 17037 SL Si1 21861 1.100000 28.08600
21862 OA 17037 SL O1 21862 -0.675000 15.99940
21863 HG 17037 SL H1 21863 0.400000 2.01600
21864 SI 17038 SL Si1 21864 1.100000 28.08600
21865 OA 17038 SL O1 21865 -0.675000 15.99940
21866 HG 17038 SL H1 21866 0.400000 2.01600
21867 SI 17039 SL Si1 21867 1.100000 28.08600
21868 OA 17039 SL O1 21868 -0.675000 15.99940
21869 HG 17039 SL H1 21869 0.400000 2.01600
21870 SI 17040 SL Si1 21870 1.100000 28.08600
21871 OA 17040 SL O1 21871 -0.675000 15.99940
21872 HG 17040 SL H1 21872 0.400000 2.01600
21873 SI 17041 SL Si1 21873 1.100000 28.08600
21874 OA 17041 SL O1 21874 -0.675000 15.99940
21875 HG 17041 SL H1 21875 0.400000 2.01600
21876 SI 17042 SL Si1 21876 1.100000 28.08600
21877 OA 17042 SL O1 21877 -0.675000 15.99940
21878 HG 17042 SL H1 21878 0.400000 2.01600
21879 SI 17043 SL Si1 21879 1.100000 28.08600
21880 OA 17043 SL O1 21880 -0.675000 15.99940
21881 HG 17043 SL H1 21881 0.400000 2.01600
21882 SI 17044 SL Si1 21882 1.100000 28.08600
21883 OA 17044 SL O1 21883 -0.675000 15.99940
21884 HG 17044 SL H1 21884 0.400000 2.01600
21885 SI 17045 SL Si1 21885 1.100000 28.08600
21886 OA 17045 SL O1 21886 -0.675000 15.99940
21887 HG 17045 SL H1 21887 0.400000 2.01600
21888 SI 17046 SL Si1 21888 1.100000 28.08600
21889 OA 17046 SL O1 21889 -0.675000 15.99940
21890 HG 17046 SL H1 21890 0.400000 2.01600
21891 SI 17047 SL Si1 21891 1.100000 28.08600
21892 OA 17047 SL O1 21892 -0.675000 15.99940
21893 HG 17047 SL H1 21893 0.400000 2.01600
21894 SI 17048 SL Si1 21894 1.100000 28.08600
21895 OA 17048 SL O1 21895 -0.675000 15.99940
21896 HG 17048 SL H1 21896 0.400000 2.01600
21897 SI 17049 SL Si1 21897 1.100000 28.08600
21898 OA 17049 SL O1 21898 -0.675000 15.99940
21899 HG 17049 SL H1 21899 0.400000 2.01600
21900 SI 17050 SL Si1 21900 1.100000 28.08600
21901 OA 17050 SL O1 21901 -0.675000 15.99940
21902 HG 17050 SL H1 21902 0.400000 2.01600
21903 SI 17051 SL Si1 21903 1.100000 28.08600
21904 OA 17051 SL O1 21904 -0.675000 15.99940
21905 HG 17051 SL H1 21905 0.400000 2.01600
21906 SI 17052 SL Si1 21906 1.100000 28.08600
21907 OA 17052 SL O1 21907 -0.675000 15.99940
21908 HG 17052 SL H1 21908 0.400000 2.01600
21909 SI 17053 SL Si1 21909 1.100000 28.08600
21910 OA 17053 SL O1 21910 -0.675000 15.99940
21911 HG 17053 SL H1 21911 0.400000 2.01600
21912 SI 17054 SL Si1 21912 1.100000 28.08600
21913 OA 17054 SL O1 21913 -0.675000 15.99940
21914 HG 17054 SL H1 21914 0.400000 2.01600
21915 SI 17055 SL Si1 21915 1.100000 28.08600
21916 OA 17055 SL O1 21916 -0.675000 15.99940
21917 HG 17055 SL H1 21917 0.400000 2.01600
21918 SI 17056 SL Si1 21918 1.100000 28.08600
21919 OA 17056 SL O1 21919 -0.675000 15.99940
21920 HG 17056 SL H1 21920 0.400000 2.01600
21921 SI 17057 SL Si1 21921 1.100000 28.08600
21922 OA 17057 SL O1 21922 -0.675000 15.99940
21923 HG 17057 SL H1 21923 0.400000 2.01600
21924 SI 17058 SL Si1 21924 1.100000 28.08600
21925 OA 17058 SL O1 21925 -0.675000 15.99940
21926 HG 17058 SL H1 21926 0.400000 2.01600
21927 SI 17059 SL Si1 21927 1.100000 28.08600
21928 OA 17059 SL O1 21928 -0.675000 15.99940
21929 HG 17059 SL H1 21929 0.400000 2.01600
21930 SI 17060 SL Si1 21930 1.100000 28.08600
21931 OA 17060 SL O1 21931 -0.675000 15.99940
21932 HG 17060 SL H1 21932 0.400000 2.01600
21933 SI 17061 SL Si1 21933 1.100000 28.08600
21934 OA 17061 SL O1 21934 -0.675000 15.99940
21935 HG 17061 SL H1 21935 0.400000 2.01600
21936 SI 17062 SL Si1 21936 1.100000 28.08600
21937 OA 17062 SL O1 21937 -0.675000 15.99940
21938 HG 17062 SL H1 21938 0.400000 2.01600
21939 SI 17063 SL Si1 21939 1.100000 28.08600
21940 OA 17063 SL O1 21940 -0.675000 15.99940
21941 HG 17063 SL H1 21941 0.400000 2.01600
21942 SI 17064 SL Si1 21942 1.100000 28.08600
21943 OA 17064 SL O1 21943 -0.675000 15.99940
21944 HG 17064 SL H1 21944 0.400000 2.01600
21945 SI 17065 SL Si1 21945 1.100000 28.08600
21946 OA 17065 SL O1 21946 -0.675000 15.99940
21947 HG 17065 SL H1 21947 0.400000 2.01600
21948 SI 17066 SL Si1 21948 1.100000 28.08600
21949 OA 17066 SL O1 21949 -0.675000 15.99940
21950 HG 17066 SL H1 21950 0.400000 2.01600
21951 SI 17067 SL Si1 21951 1.100000 28.08600
21952 OA 17067 SL O1 21952 -0.675000 15.99940
21953 HG 17067 SL H1 21953 0.400000 2.01600
21954 SI 17068 SL Si1 21954 1.100000 28.08600
21955 OA 17068 SL O1 21955 -0.675000 15.99940
21956 HG 17068 SL H1 21956 0.400000 2.01600
21957 SI 17069 SL Si1 21957 1.100000 28.08600
21958 OA 17069 SL O1 21958 -0.675000 15.99940
21959 HG 17069 SL H1 21959 0.400000 2.01600
21960 SI 17070 SL Si1 21960 1.100000 28.08600
21961 OA 17070 SL O1 21961 -0.675000 15.99940
21962 HG 17070 SL H1 21962 0.400000 2.01600
21963 SI 17071 SL Si1 21963 1.100000 28.08600
21964 OA 17071 SL O1 21964 -0.675000 15.99940
21965 HG 17071 SL H1 21965 0.400000 2.01600
21966 SI 17072 SL Si1 21966 1.100000 28.08600
21967 OA 17072 SL O1 21967 -0.675000 15.99940
21968 HG 17072 SL H1 21968 0.400000 2.01600
21969 SI 17073 SL Si1 21969 1.100000 28.08600
21970 OA 17073 SL O1 21970 -0.675000 15.99940
21971 HG 17073 SL H1 21971 0.400000 2.01600
21972 SI 17074 SL Si1 21972 1.100000 28.08600
21973 OA 17074 SL O1 21973 -0.675000 15.99940
21974 HG 17074 SL H1 21974 0.400000 2.01600
21975 SI 17075 SL Si1 21975 1.100000 28.08600
21976 OA 17075 SL O1 21976 -0.675000 15.99940
21977 HG 17075 SL H1 21977 0.400000 2.01600
21978 SI 17076 SL Si1 21978 1.100000 28.08600
21979 OA 17076 SL O1 21979 -0.675000 15.99940
21980 HG 17076 SL H1 21980 0.400000 2.01600
21981 SI 17077 SL Si1 21981 1.100000 28.08600
21982 OA 17077 SL O1 21982 -0.675000 15.99940
21983 HG 17077 SL H1 21983 0.400000 2.01600
21984 SI 17078 SL Si1 21984 1.100000 28.08600
21985 OA 17078 SL O1 21985 -0.675000 15.99940
21986 HG 17078 SL H1 21986 0.400000 2.01600
21987 SI 17079 SL Si1 21987 1.100000 28.08600
21988 OA 17079 SL O1 21988 -0.675000 15.99940
21989 HG 17079 SL H1 21989 0.400000 2.01600
21990 SI 17080 SL Si1 21990 1.100000 28.08600
21991 OA 17080 SL O1 21991 -0.675000 15.99940
21992 HG 17080 SL H1 21992 0.400000 2.01600
21993 SI 17081 SL Si1 21993 1.100000 28.08600
21994 OA 17081 SL O1 21994 -0.675000 15.99940
21995 HG 17081 SL H1 21995 0.400000 2.01600
21996 SI 17082 SL Si1 21996 1.100000 28.08600
21997 OA 17082 SL O1 21997 -0.675000 15.99940
21998 HG 17082 SL H1 21998 0.400000 2.01600
21999 SI 17083 SL Si1 21999 1.100000 28.08600
22000 OA 17083 SL O1 22000 -0.675000 15.99940
22001 HG 17083 SL H1 22001 0.400000 2.01600
22002 SI 17084 SL Si1 22002 1.100000 28.08600
22003 OA 17084 SL O1 22003 -0.675000 15.99940
22004 HG 17084 SL H1 22004 0.400000 2.01600
22005 SI 17085 SL Si1 22005 1.100000 28.08600
22006 OA 17085 SL O1 22006 -0.675000 15.99940
22007 HG 17085 SL H1 22007 0.400000 2.01600
22008 SI 17086 SL Si1 22008 1.100000 28.08600
22009 OA 17086 SL O1 22009 -0.675000 15.99940
22010 HG 17086 SL H1 22010 0.400000 2.01600
22011 SI 17087 SL Si1 22011 1.100000 28.08600
22012 OA 17087 SL O1 22012 -0.675000 15.99940
22013 HG 17087 SL H1 22013 0.400000 2.01600
22014 SI 17088 SL Si1 22014 1.100000 28.08600
22015 OA 17088 SL O1 22015 -0.675000 15.99940
22016 HG 17088 SL H1 22016 0.400000 2.01600
22017 SI 17089 SL Si1 22017 1.100000 28.08600
22018 OA 17089 SL O1 22018 -0.675000 15.99940
22019 HG 17089 SL H1 22019 0.400000 2.01600
22020 SI 17090 SL Si1 22020 1.100000 28.08600
22021 OA 17090 SL O1 22021 -0.675000 15.99940
22022 HG 17090 SL H1 22022 0.400000 2.01600
22023 SI 17091 SL Si1 22023 1.100000 28.08600
22024 OA 17091 SL O1 22024 -0.675000 15.99940
22025 HG 17091 SL H1 22025 0.400000 2.01600
22026 SI 17092 SL Si1 22026 1.100000 28.08600
22027 OA 17092 SL O1 22027 -0.675000 15.99940
22028 HG 17092 SL H1 22028 0.400000 2.01600
22029 SI 17093 SL Si1 22029 1.100000 28.08600
22030 OA 17093 SL O1 22030 -0.675000 15.99940
22031 HG 17093 SL H1 22031 0.400000 2.01600
22032 SI 17094 SL Si1 22032 1.100000 28.08600
22033 OA 17094 SL O1 22033 -0.675000 15.99940
22034 HG 17094 SL H1 22034 0.400000 2.01600
22035 SI 17095 SL Si1 22035 1.100000 28.08600
22036 OA 17095 SL O1 22036 -0.675000 15.99940
22037 HG 17095 SL H1 22037 0.400000 2.01600
22038 SI 17096 SL Si1 22038 1.100000 28.08600
22039 OA 17096 SL O1 22039 -0.675000 15.99940
22040 HG 17096 SL H1 22040 0.400000 2.01600
22041 SI 17097 SL Si1 22041 1.100000 28.08600
22042 OA 17097 SL O1 22042 -0.675000 15.99940
22043 HG 17097 SL H1 22043 0.400000 2.01600
22044 SI 17098 SL Si1 22044 1.100000 28.08600
22045 OA 17098 SL O1 22045 -0.675000 15.99940
22046 HG 17098 SL H1 22046 0.400000 2.01600
22047 SI 17099 SL Si1 22047 1.100000 28.08600
22048 OA 17099 SL O1 22048 -0.675000 15.99940
22049 HG 17099 SL H1 22049 0.400000 2.01600
22050 SI 17100 SL Si1 22050 1.100000 28.08600
22051 OA 17100 SL O1 22051 -0.675000 15.99940
22052 HG 17100 SL H1 22052 0.400000 2.01600
22053 SI 17101 SL Si1 22053 1.100000 28.08600
22054 OA 17101 SL O1 22054 -0.675000 15.99940
22055 HG 17101 SL H1 22055 0.400000 2.01600
22056 SI 17102 SL Si1 22056 1.100000 28.08600
22057 OA 17102 SL O1 22057 -0.675000 15.99940
22058 HG 17102 SL H1 22058 0.400000 2.01600
22059 SI 17103 SL Si1 22059 1.100000 28.08600
22060 OA 17103 SL O1 22060 -0.675000 15.99940
22061 HG 17103 SL H1 22061 0.400000 2.01600
22062 SI 17104 SL Si1 22062 1.100000 28.08600
22063 OA 17104 SL O1 22063 -0.675000 15.99940
22064 HG 17104 SL H1 22064 0.400000 2.01600
22065 SI 17105 SL Si1 22065 1.100000 28.08600
22066 OA 17105 SL O1 22066 -0.675000 15.99940
22067 HG 17105 SL H1 22067 0.400000 2.01600
22068 SI 17106 SL Si1 22068 1.100000 28.08600
22069 OA 17106 SL O1 22069 -0.675000 15.99940
22070 HG 17106 SL H1 22070 0.400000 2.01600
22071 SI 17107 SL Si1 22071 1.100000 28.08600
22072 OA 17107 SL O1 22072 -0.675000 15.99940
22073 HG 17107 SL H1 22073 0.400000 2.01600
22074 SI 17108 SL Si1 22074 1.100000 28.08600
22075 OA 17108 SL O1 22075 -0.675000 15.99940
22076 HG 17108 SL H1 22076 0.400000 2.01600
22077 SI 17109 SL Si1 22077 1.100000 28.08600
22078 OA 17109 SL O1 22078 -0.675000 15.99940
22079 HG 17109 SL H1 22079 0.400000 2.01600
22080 SI 17110 SL Si1 22080 1.100000 28.08600
22081 OA 17110 SL O1 22081 -0.675000 15.99940
22082 HG 17110 SL H1 22082 0.400000 2.01600
22083 SI 17111 SL Si1 22083 1.100000 28.08600
22084 OA 17111 SL O1 22084 -0.675000 15.99940
22085 HG 17111 SL H1 22085 0.400000 2.01600
22086 SI 17112 SL Si1 22086 1.100000 28.08600
22087 OA 17112 SL O1 22087 -0.675000 15.99940
22088 HG 17112 SL H1 22088 0.400000 2.01600
22089 SI 17113 SL Si1 22089 1.100000 28.08600
22090 OA 17113 SL O1 22090 -0.675000 15.99940
22091 HG 17113 SL H1 22091 0.400000 2.01600
22092 SI 17114 SL Si1 22092 1.100000 28.08600
22093 OA 17114 SL O1 22093 -0.675000 15.99940
22094 HG 17114 SL H1 22094 0.400000 2.01600
22095 SI 17115 SL Si1 22095 1.100000 28.08600
22096 OA 17115 SL O1 22096 -0.675000 15.99940
22097 HG 17115 SL H1 22097 0.400000 2.01600
22098 SI 17116 SL Si1 22098 1.100000 28.08600
22099 OA 17116 SL O1 22099 -0.675000 15.99940
22100 HG 17116 SL H1 22100 0.400000 2.01600
22101 SI 17117 SL Si1 22101 1.100000 28.08600
22102 OA 17117 SL O1 22102 -0.675000 15.99940
22103 HG 17117 SL H1 22103 0.400000 2.01600
22104 SI 17118 SL Si1 22104 1.100000 28.08600
22105 OA 17118 SL O1 22105 -0.675000 15.99940
22106 HG 17118 SL H1 22106 0.400000 2.01600
22107 SI 17119 SL Si1 22107 1.100000 28.08600
22108 OA 17119 SL O1 22108 -0.675000 15.99940
22109 HG 17119 SL H1 22109 0.400000 2.01600
22110 SI 17120 SL Si1 22110 1.100000 28.08600
22111 OA 17120 SL O1 22111 -0.675000 15.99940
22112 HG 17120 SL H1 22112 0.400000 2.01600
22113 SI 17121 SL Si1 22113 1.100000 28.08600
22114 OA 17121 SL O1 22114 -0.675000 15.99940
22115 HG 17121 SL H1 22115 0.400000 2.01600
22116 SI 17122 SL Si1 22116 1.100000 28.08600
22117 OA 17122 SL O1 22117 -0.675000 15.99940
22118 HG 17122 SL H1 22118 0.400000 2.01600
22119 SI 17123 SL Si1 22119 1.100000 28.08600
22120 OA 17123 SL O1 22120 -0.675000 15.99940
22121 HG 17123 SL H1 22121 0.400000 2.01600
22122 SI 17124 SL Si1 22122 1.100000 28.08600
22123 OA 17124 SL O1 22123 -0.675000 15.99940
22124 HG 17124 SL H1 22124 0.400000 2.01600
22125 SI 17125 SL Si1 22125 1.100000 28.08600
22126 OA 17125 SL O1 22126 -0.675000 15.99940
22127 HG 17125 SL H1 22127 0.400000 2.01600
22128 SI 17126 SL Si1 22128 1.100000 28.08600
22129 OA 17126 SL O1 22129 -0.675000 15.99940
22130 HG 17126 SL H1 22130 0.400000 2.01600
22131 SI 17127 SL Si1 22131 1.100000 28.08600
22132 OA 17127 SL O1 22132 -0.675000 15.99940
22133 HG 17127 SL H1 22133 0.400000 2.01600
22134 SI 17128 SL Si1 22134 1.100000 28.08600
22135 OA 17128 SL O1 22135 -0.675000 15.99940
22136 HG 17128 SL H1 22136 0.400000 2.01600
22137 SI 17129 SL Si1 22137 1.100000 28.08600
22138 OA 17129 SL O1 22138 -0.675000 15.99940
22139 HG 17129 SL H1 22139 0.400000 2.01600
22140 SI 17130 SL Si1 22140 1.100000 28.08600
22141 OA 17130 SL O1 22141 -0.675000 15.99940
22142 HG 17130 SL H1 22142 0.400000 2.01600
22143 SI 17131 SL Si1 22143 1.100000 28.08600
22144 OA 17131 SL O1 22144 -0.675000 15.99940
22145 HG 17131 SL H1 22145 0.400000 2.01600
22146 SI 17132 SL Si1 22146 1.100000 28.08600
22147 OA 17132 SL O1 22147 -0.675000 15.99940
22148 HG 17132 SL H1 22148 0.400000 2.01600
22149 SI 17133 SL Si1 22149 1.100000 28.08600
22150 OA 17133 SL O1 22150 -0.675000 15.99940
22151 HG 17133 SL H1 22151 0.400000 2.01600
22152 SI 17134 SL Si1 22152 1.100000 28.08600
22153 OA 17134 SL O1 22153 -0.675000 15.99940
22154 HG 17134 SL H1 22154 0.400000 2.01600
22155 SI 17135 SL Si1 22155 1.100000 28.08600
22156 OA 17135 SL O1 22156 -0.675000 15.99940
22157 HG 17135 SL H1 22157 0.400000 2.01600
22158 SI 17136 SL Si1 22158 1.100000 28.08600
22159 OA 17136 SL O1 22159 -0.675000 15.99940
22160 HG 17136 SL H1 22160 0.400000 2.01600
22161 SI 17137 SL Si1 22161 1.100000 28.08600
22162 OA 17137 SL O1 22162 -0.675000 15.99940
22163 HG 17137 SL H1 22163 0.400000 2.01600
22164 SI 17138 SL Si1 22164 1.100000 28.08600
22165 OA 17138 SL O1 22165 -0.675000 15.99940
22166 HG 17138 SL H1 22166 0.400000 2.01600
22167 SI 17139 SL Si1 22167 1.100000 28.08600
22168 OA 17139 SL O1 22168 -0.675000 15.99940
22169 HG 17139 SL H1 22169 0.400000 2.01600
22170 SI 17140 SL Si1 22170 1.100000 28.08600
22171 OA 17140 SL O1 22171 -0.675000 15.99940
22172 HG 17140 SL H1 22172 0.400000 2.01600
22173 SI 17141 SL Si1 22173 1.100000 28.08600
22174 OA 17141 SL O1 22174 -0.675000 15.99940
22175 HG 17141 SL H1 22175 0.400000 2.01600
22176 SI 17142 SL Si1 22176 1.100000 28.08600
22177 OA 17142 SL O1 22177 -0.675000 15.99940
22178 HG 17142 SL H1 22178 0.400000 2.01600
22179 SI 17143 SL Si1 22179 1.100000 28.08600
22180 OA 17143 SL O1 22180 -0.675000 15.99940
22181 HG 17143 SL H1 22181 0.400000 2.01600
22182 SI 17144 SL Si1 22182 1.100000 28.08600
22183 OA 17144 SL O1 22183 -0.675000 15.99940
22184 HG 17144 SL H1 22184 0.400000 2.01600
22185 SI 17145 SL Si1 22185 1.100000 28.08600
22186 OA 17145 SL O1 22186 -0.675000 15.99940
22187 HG 17145 SL H1 22187 0.400000 2.01600
22188 SI 17146 SL Si1 22188 1.100000 28.08600
22189 OA 17146 SL O1 22189 -0.675000 15.99940
22190 HG 17146 SL H1 22190 0.400000 2.01600
22191 SI 17147 SL Si1 22191 1.100000 28.08600
22192 OA 17147 SL O1 22192 -0.675000 15.99940
22193 HG 17147 SL H1 22193 0.400000 2.01600
22194 SI 17148 SL Si1 22194 1.100000 28.08600
22195 OA 17148 SL O1 22195 -0.675000 15.99940
22196 HG 17148 SL H1 22196 0.400000 2.01600
22197 SI 17149 SL Si1 22197 1.100000 28.08600
22198 OA 17149 SL O1 22198 -0.675000 15.99940
22199 HG 17149 SL H1 22199 0.400000 2.01600
22200 SI 17150 SL Si1 22200 1.100000 28.08600
22201 OA 17150 SL O1 22201 -0.675000 15.99940
22202 HG 17150 SL H1 22202 0.400000 2.01600
22203 SI 17151 SL Si1 22203 1.100000 28.08600
22204 OA 17151 SL O1 22204 -0.675000 15.99940
22205 HG 17151 SL H1 22205 0.400000 2.01600
22206 SI 17152 SL Si1 22206 1.100000 28.08600
22207 OA 17152 SL O1 22207 -0.675000 15.99940
22208 HG 17152 SL H1 22208 0.400000 2.01600
22209 SI 17153 SL Si1 22209 1.100000 28.08600
22210 OA 17153 SL O1 22210 -0.675000 15.99940
22211 HG 17153 SL H1 22211 0.400000 2.01600
22212 SI 17154 SL Si1 22212 1.100000 28.08600
22213 OA 17154 SL O1 22213 -0.675000 15.99940
22214 HG 17154 SL H1 22214 0.400000 2.01600
22215 SI 17155 SL Si1 22215 1.100000 28.08600
22216 OA 17155 SL O1 22216 -0.675000 15.99940
22217 HG 17155 SL H1 22217 0.400000 2.01600
22218 SI 17156 SL Si1 22218 1.100000 28.08600
22219 OA 17156 SL O1 22219 -0.675000 15.99940
22220 HG 17156 SL H1 22220 0.400000 2.01600
22221 SI 17157 SL Si1 22221 1.100000 28.08600
22222 OA 17157 SL O1 22222 -0.675000 15.99940
22223 HG 17157 SL H1 22223 0.400000 2.01600
22224 SI 17158 SL Si1 22224 1.100000 28.08600
22225 OA 17158 SL O1 22225 -0.675000 15.99940
22226 HG 17158 SL H1 22226 0.400000 2.01600
22227 SI 17159 SL Si1 22227 1.100000 28.08600
22228 OA 17159 SL O1 22228 -0.675000 15.99940
22229 HG 17159 SL H1 22229 0.400000 2.01600
22230 SI 17160 SL Si1 22230 1.100000 28.08600
22231 OA 17160 SL O1 22231 -0.675000 15.99940
22232 HG 17160 SL H1 22232 0.400000 2.01600
22233 SI 17161 SL Si1 22233 1.100000 28.08600
22234 OA 17161 SL O1 22234 -0.675000 15.99940
22235 HG 17161 SL H1 22235 0.400000 2.01600
22236 SI 17162 SL Si1 22236 1.100000 28.08600
22237 OA 17162 SL O1 22237 -0.675000 15.99940
22238 HG 17162 SL H1 22238 0.400000 2.01600
22239 SI 17163 SL Si1 22239 1.100000 28.08600
22240 OA 17163 SL O1 22240 -0.675000 15.99940
22241 HG 17163 SL H1 22241 0.400000 2.01600
22242 SI 17164 SL Si1 22242 1.100000 28.08600
22243 OA 17164 SL O1 22243 -0.675000 15.99940
22244 HG 17164 SL H1 22244 0.400000 2.01600
22245 SI 17165 SL Si1 22245 1.100000 28.08600
22246 OA 17165 SL O1 22246 -0.675000 15.99940
22247 HG 17165 SL H1 22247 0.400000 2.01600
22248 SI 17166 SL Si1 22248 1.100000 28.08600
22249 OA 17166 SL O1 22249 -0.675000 15.99940
22250 HG 17166 SL H1 22250 0.400000 2.01600
22251 SI 17167 SL Si1 22251 1.100000 28.08600
22252 OA 17167 SL O1 22252 -0.675000 15.99940
22253 HG 17167 SL H1 22253 0.400000 2.01600
22254 SI 17168 SL Si1 22254 1.100000 28.08600
22255 OA 17168 SL O1 22255 -0.675000 15.99940
22256 HG 17168 SL H1 22256 0.400000 2.01600
22257 SI 17169 SL Si1 22257 1.100000 28.08600
22258 OA 17169 SL O1 22258 -0.675000 15.99940
22259 HG 17169 SL H1 22259 0.400000 2.01600
22260 SI 17170 SL Si1 22260 1.100000 28.08600
22261 OA 17170 SL O1 22261 -0.675000 15.99940
22262 HG 17170 SL H1 22262 0.400000 2.01600
22263 SI 17171 SL Si1 22263 1.100000 28.08600
22264 OA 17171 SL O1 22264 -0.675000 15.99940
22265 HG 17171 SL H1 22265 0.400000 2.01600
22266 SI 17172 SL Si1 22266 1.100000 28.08600
22267 OA 17172 SL O1 22267 -0.675000 15.99940
22268 HG 17172 SL H1 22268 0.400000 2.01600
22269 SI 17173 SL Si1 22269 1.100000 28.08600
22270 OA 17173 SL O1 22270 -0.675000 15.99940
22271 HG 17173 SL H1 22271 0.400000 2.01600
22272 SI 17174 SL Si1 22272 1.100000 28.08600
22273 OA 17174 SL O1 22273 -0.675000 15.99940
22274 HG 17174 SL H1 22274 0.400000 2.01600
22275 SI 17175 SL Si1 22275 1.100000 28.08600
22276 OA 17175 SL O1 22276 -0.675000 15.99940
22277 HG 17175 SL H1 22277 0.400000 2.01600
22278 SI 17176 SL Si1 22278 1.100000 28.08600
22279 OA 17176 SL O1 22279 -0.675000 15.99940
22280 HG 17176 SL H1 22280 0.400000 2.01600
22281 SI 17177 SL Si1 22281 1.100000 28.08600
22282 OA 17177 SL O1 22282 -0.675000 15.99940
22283 HG 17177 SL H1 22283 0.400000 2.01600
22284 SI 17178 SL Si1 22284 1.100000 28.08600
22285 OA 17178 SL O1 22285 -0.675000 15.99940
22286 HG 17178 SL H1 22286 0.400000 2.01600
22287 SI 17179 SL Si1 22287 1.100000 28.08600
22288 OA 17179 SL O1 22288 -0.675000 15.99940
22289 HG 17179 SL H1 22289 0.400000 2.01600
22290 SI 17180 SL Si1 22290 1.100000 28.08600
22291 OA 17180 SL O1 22291 -0.675000 15.99940
22292 HG 17180 SL H1 22292 0.400000 2.01600
22293 SI 17181 SL Si1 22293 1.100000 28.08600
22294 OA 17181 SL O1 22294 -0.675000 15.99940
22295 HG 17181 SL H1 22295 0.400000 2.01600
22296 SI 17182 SL Si1 22296 1.100000 28.08600
22297 OA 17182 SL O1 22297 -0.675000 15.99940
22298 HG 17182 SL H1 22298 0.400000 2.01600
22299 SI 17183 SL Si1 22299 1.100000 28.08600
22300 OA 17183 SL O1 22300 -0.675000 15.99940
22301 HG 17183 SL H1 22301 0.400000 2.01600
22302 SI 17184 SL Si1 22302 1.100000 28.08600
22303 OA 17184 SL O1 22303 -0.675000 15.99940
22304 HG 17184 SL H1 22304 0.400000 2.01600
22305 SI 17185 SL Si1 22305 1.100000 28.08600
22306 OA 17185 SL O1 22306 -0.675000 15.99940
22307 HG 17185 SL H1 22307 0.400000 2.01600
22308 SI 17186 SL Si1 22308 1.100000 28.08600
22309 OA 17186 SL O1 22309 -0.675000 15.99940
22310 HG 17186 SL H1 22310 0.400000 2.01600
22311 SI 17187 SL Si1 22311 1.100000 28.08600
22312 OA 17187 SL O1 22312 -0.675000 15.99940
22313 HG 17187 SL H1 22313 0.400000 2.01600
22314 SI 17188 SL Si1 22314 1.100000 28.08600
22315 OA 17188 SL O1 22315 -0.675000 15.99940
22316 HG 17188 SL H1 22316 0.400000 2.01600
22317 SI 17189 SL Si1 22317 1.100000 28.08600
22318 OA 17189 SL O1 22318 -0.675000 15.99940
22319 HG 17189 SL H1 22319 0.400000 2.01600
22320 SI 17190 SL Si1 22320 1.100000 28.08600
22321 OA 17190 SL O1 22321 -0.675000 15.99940
22322 HG 17190 SL H1 22322 0.400000 2.01600
22323 SI 17191 SL Si1 22323 1.100000 28.08600
22324 OA 17191 SL O1 22324 -0.675000 15.99940
22325 HG 17191 SL H1 22325 0.400000 2.01600
22326 SI 17192 SL Si1 22326 1.100000 28.08600
22327 OA 17192 SL O1 22327 -0.675000 15.99940
22328 HG 17192 SL H1 22328 0.400000 2.01600
22329 SI 17193 SL Si1 22329 1.100000 28.08600
22330 OA 17193 SL O1 22330 -0.675000 15.99940
22331 HG 17193 SL H1 22331 0.400000 2.01600
22332 SI 17194 SL Si1 22332 1.100000 28.08600
22333 OA 17194 SL O1 22333 -0.675000 15.99940
22334 HG 17194 SL H1 22334 0.400000 2.01600
22335 SI 17195 SL Si1 22335 1.100000 28.08600
22336 OA 17195 SL O1 22336 -0.675000 15.99940
22337 HG 17195 SL H1 22337 0.400000 2.01600
22338 SI 17196 SL Si1 22338 1.100000 28.08600
22339 OA 17196 SL O1 22339 -0.675000 15.99940
22340 HG 17196 SL H1 22340 0.400000 2.01600
22341 SI 17197 SL Si1 22341 1.100000 28.08600
22342 OA 17197 SL O1 22342 -0.675000 15.99940
22343 HG 17197 SL H1 22343 0.400000 2.01600
22344 SI 17198 SL Si1 22344 1.100000 28.08600
22345 OA 17198 SL O1 22345 -0.675000 15.99940
22346 HG 17198 SL H1 22346 0.400000 2.01600
22347 SI 17199 SL Si1 22347 1.100000 28.08600
22348 OA 17199 SL O1 22348 -0.675000 15.99940
22349 HG 17199 SL H1 22349 0.400000 2.01600
22350 SI 17200 SL Si1 22350 1.100000 28.08600
22351 OA 17200 SL O1 22351 -0.675000 15.99940
22352 HG 17200 SL H1 22352 0.400000 2.01600
22353 SI 17201 SL Si1 22353 1.100000 28.08600
22354 OA 17201 SL O1 22354 -0.675000 15.99940
22355 HG 17201 SL H1 22355 0.400000 2.01600
22356 SI 17202 SL Si1 22356 1.100000 28.08600
22357 OA 17202 SL O1 22357 -0.675000 15.99940
22358 HG 17202 SL H1 22358 0.400000 2.01600
22359 SI 17203 SLG Si1 22359 1.100000 28.08600
22360 OA 17203 SLG O1 22360 -0.675000 15.99940
22361 HG 17203 SLG H1 22361 0.400000 2.01600
22362 OA 17203 SLG O2 22362 -0.675000 15.99940
22363 HG 17203 SLG H2 22363 0.400000 2.01600
22364 SI 17204 SLG Si1 22364 1.100000 28.08600
22365 OA 17204 SLG O1 22365 -0.675000 15.99940
22366 HG 17204 SLG H1 22366 0.400000 2.01600
22367 OA 17204 SLG O2 22367 -0.675000 15.99940
22368 HG 17204 SLG H2 22368 0.400000 2.01600
22369 SI 17205 SLG Si1 22369 1.100000 28.08600
22370 OA 17205 SLG O1 22370 -0.675000 15.99940
22371 HG 17205 SLG H1 22371 0.400000 2.01600
22372 OA 17205 SLG O2 22372 -0.675000 15.99940
22373 HG 17205 SLG H2 22373 0.400000 2.01600
22374 SI 17206 SLG Si1 22374 1.100000 28.08600
22375 OA 17206 SLG O1 22375 -0.675000 15.99940
22376 HG 17206 SLG H1 22376 0.400000 2.01600
22377 OA 17206 SLG O2 22377 -0.675000 15.99940
22378 HG 17206 SLG H2 22378 0.400000 2.01600
22379 SI 17207 SLG Si1 22379 1.100000 28.08600
22380 OA 17207 SLG O1 22380 -0.675000 15.99940
22381 HG 17207 SLG H1 22381 0.400000 2.01600
22382 OA 17207 SLG O2 22382 -0.675000 15.99940
22383 HG 17207 SLG H2 22383 0.400000 2.01600
22384 SI 17208 SLG Si1 22384 1.100000 28.08600
22385 OA 17208 SLG O1 22385 -0.675000 15.99940
22386 HG 17208 SLG H1 22386 0.400000 2.01600
22387 OA 17208 SLG O2 22387 -0.675000 15.99940
22388 HG 17208 SLG H2 22388 0.400000 2.01600
22389 SI 17209 SLG Si1 22389 1.100000 28.08600
22390 OA 17209 SLG O1 22390 -0.675000 15.99940
22391 HG 17209 SLG H1 22391 0.400000 2.01600
22392 OA 17209 SLG O2 22392 -0.675000 15.99940
22393 HG 17209 SLG H2 22393 0.400000 2.01600
22394 SI 17210 SLG Si1 22394 1.100000 28.08600
22395 OA 17210 SLG O1 22395 -0.675000 15.99940
22396 HG 17210 SLG H1 22396 0.400000 2.01600
22397 OA 17210 SLG O2 22397 -0.675000 15.99940
22398 HG 17210 SLG H2 22398 0.400000 2.01600
22399 SI 17211 SLG Si1 22399 1.100000 28.08600
22400 OA 17211 SLG O1 22400 -0.675000 15.99940
22401 HG 17211 SLG H1 22401 0.400000 2.01600
22402 OA 17211 SLG O2 22402 -0.675000 15.99940
22403 HG 17211 SLG H2 22403 0.400000 2.01600
22404 SI 17212 SLG Si1 22404 1.100000 28.08600
22405 OA 17212 SLG O1 22405 -0.675000 15.99940
22406 HG 17212 SLG H1 22406 0.400000 2.01600
22407 OA 17212 SLG O2 22407 -0.675000 15.99940
22408 HG 17212 SLG H2 22408 0.400000 2.01600
22409 SI 17213 SLG Si1 22409 1.100000 28.08600
22410 OA 17213 SLG O1 22410 -0.675000 15.99940
22411 HG 17213 SLG H1 22411 0.400000 2.01600
22412 OA 17213 SLG O2 22412 -0.675000 15.99940
22413 HG 17213 SLG H2 22413 0.400000 2.01600
22414 SI 17214 SLG Si1 22414 1.100000 28.08600
22415 OA 17214 SLG O1 22415 -0.675000 15.99940
22416 HG 17214 SLG H1 22416 0.400000 2.01600
22417 OA 17214 SLG O2 22417 -0.675000 15.99940
22418 HG 17214 SLG H2 22418 0.400000 2.01600
22419 SI 17215 SLG Si1 22419 1.100000 28.08600
22420 OA 17215 SLG O1 22420 -0.675000 15.99940
22421 HG 17215 SLG H1 22421 0.400000 2.01600
22422 OA 17215 SLG O2 22422 -0.675000 15.99940
22423 HG 17215 SLG H2 22423 0.400000 2.01600
22424 SI 17216 SLG Si1 22424 1.100000 28.08600
22425 OA 17216 SLG O1 22425 -0.675000 15.99940
22426 HG 17216 SLG H1 22426 0.400000 2.01600
22427 OA 17216 SLG O2 22427 -0.675000 15.99940
22428 HG 17216 SLG H2 22428 0.400000 2.01600
22429 SI 17217 SLG Si1 22429 1.100000 28.08600
22430 OA 17217 SLG O1 22430 -0.675000 15.99940
22431 HG 17217 SLG H1 22431 0.400000 2.01600
22432 OA 17217 SLG O2 22432 -0.675000 15.99940
22433 HG 17217 SLG H2 22433 0.400000 2.01600
22434 SI 17218 SLG Si1 22434 1.100000 28.08600
22435 OA 17218 SLG O1 22435 -0.675000 15.99940
22436 HG 17218 SLG H1 22436 0.400000 2.01600
22437 OA 17218 SLG O2 22437 -0.675000 15.99940
22438 HG 17218 SLG H2 22438 0.400000 2.01600
22439 SI 17219 SLG Si1 22439 1.100000 28.08600
22440 OA 17219 SLG O1 22440 -0.675000 15.99940
22441 HG 17219 SLG H1 22441 0.400000 2.01600
22442 OA 17219 SLG O2 22442 -0.675000 15.99940
22443 HG 17219 SLG H2 22443 0.400000 2.01600
22444 SI 17220 SLG Si1 22444 1.100000 28.08600
22445 OA 17220 SLG O1 22445 -0.675000 15.99940
22446 HG 17220 SLG H1 22446 0.400000 2.01600
22447 OA 17220 SLG O2 22447 -0.675000 15.99940
22448 HG 17220 SLG H2 22448 0.400000 2.01600
22449 SI 17221 SLG Si1 22449 1.100000 28.08600
22450 OA 17221 SLG O1 22450 -0.675000 15.99940
22451 HG 17221 SLG H1 22451 0.400000 2.01600
22452 OA 17221 SLG O2 22452 -0.675000 15.99940
22453 HG 17221 SLG H2 22453 0.400000 2.01600
22454 SI 17222 SLG Si1 22454 1.100000 28.08600
22455 OA 17222 SLG O1 22455 -0.675000 15.99940
22456 HG 17222 SLG H1 22456 0.400000 2.01600
22457 OA 17222 SLG O2 22457 -0.675000 15.99940
22458 HG 17222 SLG H2 22458 0.400000 2.01600
22459 SI 17223 SLG Si1 22459 1.100000 28.08600
22460 OA 17223 SLG O1 22460 -0.675000 15.99940
22461 HG 17223 SLG H1 22461 0.400000 2.01600
22462 OA 17223 SLG O2 22462 -0.675000 15.99940
22463 HG 17223 SLG H2 22463 0.400000 2.01600
22464 SI 17224 SLG Si1 22464 1.100000 28.08600
22465 OA 17224 SLG O1 22465 -0.675000 15.99940
22466 HG 17224 SLG H1 22466 0.400000 2.01600
22467 OA 17224 SLG O2 22467 -0.675000 15.99940
22468 HG 17224 SLG H2 22468 0.400000 2.01600
22469 SI 17225 SLG Si1 22469 1.100000 28.08600
22470 OA 17225 SLG O1 22470 -0.675000 15.99940
22471 HG 17225 SLG H1 22471 0.400000 2.01600
22472 OA 17225 SLG O2 22472 -0.675000 15.99940
22473 HG 17225 SLG H2 22473 0.400000 2.01600

[ bonds ]
; ai aj funct params
1 11341 1 0.16500 119244.000000
1 14857 1 0.16500 119244.000000
2 11341 1 0.16500 119244.000000
2 15525 1 0.16500 119244.000000
3 11341 1 0.16500 119244.000000
3 15706 1 0.16500 119244.000000
4 11341 1 0.16500 119244.000000
4 11715 1 0.16500 119244.000000
5 11342 1 0.16500 119244.000000
5 11486 1 0.16500 119244.000000
6 11342 1 0.16500 119244.000000
6 21636 1 0.16500 119244.000000
7 11343 1 0.16500 119244.000000
7 15632 1 0.16500 119244.000000
8 11343 1 0.16500 119244.000000
8 16439 1 0.16500 119244.000000
9 11343 1 0.16500 119244.000000
9 11776 1 0.16500 119244.000000
10 11343 1 0.16500 119244.000000
10 12441 1 0.16500 119244.000000
11 11344 1 0.16500 119244.000000
11 12263 1 0.16500 119244.000000
12 11344 1 0.16500 119244.000000
12 12590 1 0.16500 119244.000000
13 11344 1 0.16500 119244.000000
13 13579 1 0.16500 119244.000000
14 11345 1 0.16500 119244.000000
14 11383 1 0.16500 119244.000000
15 11345 1 0.16500 119244.000000
15 13507 1 0.16500 119244.000000
16 11345 1 0.16500 119244.000000
16 13768 1 0.16500 119244.000000
17 11345 1 0.16500 119244.000000
17 12525 1 0.16500 119244.000000
18 12352 1 0.16500 119244.000000
18 21963 1 0.16500 119244.000000
19 11346 1 0.16500 119244.000000
19 22002 1 0.16500 119244.000000
20 11346 1 0.16500 119244.000000
20 14128 1 0.16500 119244.000000
21 11346 1 0.16500 119244.000000
21 16796 1 0.16500 119244.000000
22 11347 1 0.16500 119244.000000
22 15109 1 0.16500 119244.000000
23 11347 1 0.16500 119244.000000
23 16038 1 0.16500 119244.000000
24 11347 1 0.16500 119244.000000
24 16600 1 0.16500 119244.000000
25 11347 1 0.16500 119244.000000
25 12818 1 0.16500 119244.000000
26 11348 1 0.16500 119244.000000
26 12258 1 0.16500 119244.000000
27 11348 1 0.16500 119244.000000
27 13809 1 0.16500 119244.000000
28 11348 1 0.16500 119244.000000
28 14958 1 0.16500 119244.000000
29 11348 1 0.16500 119244.000000
29 16314 1 0.16500 119244.000000
30 11349 1 0.16500 119244.000000
30 21222 1 0.16500 119244.000000
31 11349 1 0.16500 119244.000000
31 17888 1 0.16500 119244.000000
32 11349 1 0.16500 119244.000000
32 13834 1 0.16500 119244.000000
33 11350 1 0.16500 119244.000000
33 14165 1 0.16500 119244.000000
34 11350 1 0.16500 119244.000000
34 15444 1 0.16500 119244.000000
35 11350 1 0.16500 119244.000000
35 12755 1 0.16500 119244.000000
36 11350 1 0.16500 119244.000000
36 15124 1 0.16500 119244.000000
37 11351 1 0.16500 119244.000000
37 14113 1 0.16500 119244.000000
38 11351 1 0.16500 119244.000000
38 13466 1 0.16500 119244.000000
39 11351 1 0.16500 119244.000000
39 12681 1 0.16500 119244.000000
40 11351 1 0.16500 119244.000000
40 14007 1 0.16500 119244.000000
41 11352 1 0.16500 119244.000000
41 15102 1 0.16500 119244.000000
42 11352 1 0.16500 119244.000000
42 14481 1 0.16500 119244.000000
43 11352 1 0.16500 119244.000000
43 15750 1 0.16500 119244.000000
44 11352 1 0.16500 119244.000000
44 16115 1 0.16500 119244.000000
45 11353 1 0.16500 119244.000000
45 15218 1 0.16500 119244.000000
46 11353 1 0.16500 119244.000000
46 16782 1 0.16500 119244.000000
47 11353 1 0.16500 119244.000000
47 14192 1 0.16500 119244.000000
48 11353 1 0.16500 119244.000000
48 15585 1 0.16500 119244.000000
49 11354 1 0.16500 119244.000000
49 14467 1 0.16500 119244.000000
50 11354 1 0.16500 119244.000000
50 14793 1 0.16500 119244.000000
51 11354 1 0.16500 119244.000000
51 13917 1 0.16500 119244.000000
52 11354 1 0.16500 119244.000000
52 12199 1 0.16500 119244.000000
53 11355 1 0.16500 119244.000000
53 13983 1 0.16500 119244.000000
54 11355 1 0.16500 119244.000000
54 12656 1 0.16500 119244.000000
55 11355 1 0.16500 119244.000000
55 15692 1 0.16500 119244.000000
56 11355 1 0.16500 119244.000000
56 12271 1 0.16500 119244.000000
57 11356 1 0.16500 119244.000000
57 14011 1 0.16500 119244.000000
58 11356 1 0.16500 119244.000000
58 13843 1 0.16500 119244.000000
59 11356 1 0.16500 119244.000000
59 11837 1 0.16500 119244.000000
60 11356 1 0.16500 119244.000000
60 15279 1 0.16500 119244.000000
61 11357 1 0.16500 119244.000000
61 16992 1 0.16500 119244.000000
62 11357 1 0.16500 119244.000000
62 12446 1 0.16500 119244.000000
63 11357 1 0.16500 119244.000000
63 11386 1 0.16500 119244.000000
64 11357 1 0.16500 119244.000000
64 12178 1 0.16500 119244.000000
65 11358 1 0.16500 119244.000000
65 11550 1 0.16500 119244.000000
66 11358 1 0.16500 119244.000000
66 15886 1 0.16500 119244.000000
67 11358 1 0.16500 119244.000000
67 15931 1 0.16500 119244.000000
68 11359 1 0.16500 119244.000000
68 16468 1 0.16500 119244.000000
69 11359 1 0.16500 119244.000000
69 14892 1 0.16500 119244.000000
70 11360 1 0.16500 119244.000000
70 15166 1 0.16500 119244.000000
71 11360 1 0.16500 119244.000000
71 13795 1 0.16500 119244.000000
72 11360 1 0.16500 119244.000000
72 16228 1 0.16500 119244.000000
73 11360 1 0.16500 119244.000000
73 15822 1 0.16500 119244.000000
74 11361 1 0.16500 119244.000000
74 21738 1 0.16500 119244.000000
75 11361 1 0.16500 119244.000000
75 21726 1 0.16500 119244.000000
76 11361 1 0.16500 119244.000000
76 15683 1 0.16500 119244.000000
77 11361 1 0.16500 119244.000000
77 16494 1 0.16500 119244.000000
78 11362 1 0.16500 119244.000000
78 12448 1 0.16500 119244.000000
79 11362 1 0.16500 119244.000000
79 11789 1 0.16500 119244.000000
80 11362 1 0.16500 119244.000000
80 15058 1 0.16500 119244.000000
81 11362 1 0.16500 119244.000000
81 14625 1 0.16500 119244.000000
82 11363 1 0.16500 119244.000000
82 13767 1 0.16500 119244.000000
83 11363 1 0.16500 119244.000000
83 16497 1 0.16500 119244.000000
84 11363 1 0.16500 119244.000000
84 14643 1 0.16500 119244.000000
85 11363 1 0.16500 119244.000000
85 16349 1 0.16500 119244.000000
86 13525 1 0.16500 119244.000000
86 13553 1 0.16500 119244.000000
87 11364 1 0.16500 119244.000000
87 13149 1 0.16500 119244.000000
88 11364 1 0.16500 119244.000000
88 13553 1 0.16500 119244.000000
89 11364 1 0.16500 119244.000000
89 15686 1 0.16500 119244.000000
90 11365 1 0.16500 119244.000000
90 22041 1 0.16500 119244.000000
91 11365 1 0.16500 119244.000000
91 15786 1 0.16500 119244.000000
92 11365 1 0.16500 119244.000000
92 15390 1 0.16500 119244.000000
93 11366 1 0.16500 119244.000000
93 13730 1 0.16500 119244.000000
94 11366 1 0.16500 119244.000000
94 13485 1 0.16500 119244.000000
95 11366 1 0.16500 119244.000000
95 16080 1 0.16500 119244.000000
96 11366 1 0.16500 119244.000000
96 12634 1 0.16500 119244.000000
97 11367 1 0.16500 119244.000000
97 15426 1 0.16500 119244.000000
98 11367 1 0.16500 119244.000000
98 12960 1 0.16500 119244.000000
99 11367 1 0.16500 119244.000000
99 13833 1 0.16500 119244.000000
100 11367 1 0.16500 119244.000000
100 15948 1 0.16500 119244.000000
101 11368 1 0.16500 119244.000000
101 11640 1 0.16500 119244.000000
102 11368 1 0.16500 119244.000000
102 13929 1 0.16500 119244.000000
103 11368 1 0.16500 119244.000000
103 12414 1 0.16500 119244.000000
104 11368 1 0.16500 119244.000000
104 16089 1 0.16500 119244.000000
105 11369 1 0.16500 119244.000000
105 12103 1 0.16500 119244.000000
106 11369 1 0.16500 119244.000000
106 16447 1 0.16500 119244.000000
107 11369 1 0.16500 119244.000000
107 15852 1 0.16500 119244.000000
108 11369 1 0.16500 119244.000000
108 16092 1 0.16500 119244.000000
109 11370 1 0.16500 119244.000000
109 14614 1 0.16500 119244.000000
110 11370 1 0.16500 119244.000000
110 16015 1 0.16500 119244.000000
111 11370 1 0.16500 119244.000000
111 13496 1 0.16500 119244.000000
112 11370 1 0.16500 119244.000000
112 15726 1 0.16500 119244.000000
113 11371 1 0.16500 119244.000000
113 11779 1 0.16500 119244.000000
114 11371 1 0.16500 119244.000000
114 12541 1 0.16500 119244.000000
115 11371 1 0.16500 119244.000000
115 16002 1 0.16500 119244.000000
116 11371 1 0.16500 119244.000000
116 11841 1 0.16500 119244.000000
117 11372 1 0.16500 119244.000000
117 14298 1 0.16500 119244.000000
118 11372 1 0.16500 119244.000000
118 11838 1 0.16500 119244.000000
119 11372 1 0.16500 119244.000000
119 15046 1 0.16500 119244.000000
120 11372 1 0.16500 119244.000000
120 12610 1 0.16500 119244.000000
121 11373 1 0.16500 119244.000000
121 16468 1 0.16500 119244.000000
122 11373 1 0.16500 119244.000000
122 22338 1 0.16500 119244.000000
123 11374 1 0.16500 119244.000000
123 11479 1 0.16500 119244.000000
124 11374 1 0.16500 119244.000000
124 16381 1 0.16500 119244.000000
125 11374 1 0.16500 119244.000000
125 19230 1 0.16500 119244.000000
126 11375 1 0.16500 119244.000000
126 11846 1 0.16500 119244.000000
127 11375 1 0.16500 119244.000000
127 11377 1 0.16500 119244.000000
128 11375 1 0.16500 119244.000000
128 11852 1 0.16500 119244.000000
129 11375 1 0.16500 119244.000000
129 11738 1 0.16500 119244.000000
130 11376 1 0.16500 119244.000000
130 12840 1 0.16500 119244.000000
131 11376 1 0.16500 119244.000000
131 13701 1 0.16500 119244.000000
132 11376 1 0.16500 119244.000000
132 13621 1 0.16500 119244.000000
133 11376 1 0.16500 119244.000000
133 15480 1 0.16500 119244.000000
134 11377 1 0.16500 119244.000000
134 13185 1 0.16500 119244.000000
135 11377 1 0.16500 119244.000000
135 13471 1 0.16500 119244.000000
136 11377 1 0.16500 119244.000000
136 15154 1 0.16500 119244.000000
137 11378 1 0.16500 119244.000000
137 18474 1 0.16500 119244.000000
138 11378 1 0.16500 119244.000000
138 15141 1 0.16500 119244.000000
139 11378 1 0.16500 119244.000000
139 12218 1 0.16500 119244.000000
140 11379 1 0.16500 119244.000000
140 12615 1 0.16500 119244.000000
141 11379 1 0.16500 119244.000000
141 13664 1 0.16500 119244.000000
142 11379 1 0.16500 119244.000000
142 18846 1 0.16500 119244.000000
143 11379 1 0.16500 119244.000000
143 11869 1 0.16500 119244.000000
144 11380 1 0.16500 119244.000000
144 15138 1 0.16500 119244.000000
145 11380 1 0.16500 119244.000000
145 12685 1 0.16500 119244.000000
146 11380 1 0.16500 119244.000000
146 12227 1 0.16500 119244.000000
147 11380 1 0.16500 119244.000000
147 12591 1 0.16500 119244.000000
148 13812 1 0.16500 119244.000000
148 14964 1 0.16500 119244.000000
149 11381 1 0.16500 119244.000000
149 14769 1 0.16500 119244.000000
150 11381 1 0.16500 119244.000000
150 14964 1 0.16500 119244.000000
151 11381 1 0.16500 119244.000000
151 11653 1 0.16500 119244.000000
152 11382 1 0.16500 119244.000000
152 14547 1 0.16500 119244.000000
153 11382 1 0.16500 119244.000000
153 11799 1 0.16500 119244.000000
154 11382 1 0.16500 119244.000000
154 14655 1 0.16500 119244.000000
155 11382 1 0.16500 119244.000000
155 11856 1 0.16500 119244.000000
156 11383 1 0.16500 119244.000000
156 12119 1 0.16500 119244.000000
157 11383 1 0.16500 119244.000000
157 13417 1 0.16500 119244.000000
158 11383 1 0.16500 119244.000000
158 14012 1 0.16500 119244.000000
159 13538 1 0.16500 119244.000000
159 13654 1 0.16500 119244.000000
160 11384 1 0.16500 119244.000000
160 11685 1 0.16500 119244.000000
161 11384 1 0.16500 119244.000000
161 12696 1 0.16500 119244.000000
162 11384 1 0.16500 119244.000000
162 15099 1 0.16500 119244.000000
163 11385 1 0.16500 119244.000000
163 13182 1 0.16500 119244.000000
164 11385 1 0.16500 119244.000000
164 13405 1 0.16500 119244.000000
165 11385 1 0.16500 119244.000000
165 16024 1 0.16500 119244.000000
166 11385 1 0.16500 119244.000000
166 14607 1 0.16500 119244.000000
167 11386 1 0.16500 119244.000000
167 13665 1 0.16500 119244.000000
168 11386 1 0.16500 119244.000000
168 19506 1 0.16500 119244.000000
169 11386 1 0.16500 119244.000000
169 14077 1 0.16500 119244.000000
170 11387 1 0.16500 119244.000000
170 16092 1 0.16500 119244.000000
171 11387 1 0.16500 119244.000000
171 12077 1 0.16500 119244.000000
172 11387 1 0.16500 119244.000000
172 13396 1 0.16500 119244.000000
173 11387 1 0.16500 119244.000000
173 15493 1 0.16500 119244.000000
174 11388 1 0.16500 119244.000000
174 21162 1 0.16500 119244.000000
175 11388 1 0.16500 119244.000000
175 15012 1 0.16500 119244.000000
176 11388 1 0.16500 119244.000000
176 11531 1 0.16500 119244.000000
177 11388 1 0.16500 119244.000000
177 16516 1 0.16500 119244.000000
178 17762 1 0.16500 119244.000000
178 18462 1 0.16500 119244.000000
179 16054 1 0.16500 119244.000000
179 18462 1 0.16500 119244.000000
180 11389 1 0.16500 119244.000000
180 12716 1 0.16500 119244.000000
181 11389 1 0.16500 119244.000000
181 21600 1 0.16500 119244.000000
182 11389 1 0.16500 119244.000000
182 15932 1 0.16500 119244.000000
183 11389 1 0.16500 119244.000000
183 15997 1 0.16500 119244.000000
184 11390 1 0.16500 119244.000000
184 14418 1 0.16500 119244.000000
185 11390 1 0.16500 119244.000000
185 13260 1 0.16500 119244.000000
186 11390 1 0.16500 119244.000000
186 12621 1 0.16500 119244.000000
187 11390 1 0.16500 119244.000000
187 13739 1 0.16500 119244.000000
188 11391 1 0.16500 119244.000000
188 15604 1 0.16500 119244.000000
189 11391 1 0.16500 119244.000000
189 13643 1 0.16500 119244.000000
190 11391 1 0.16500 119244.000000
190 15297 1 0.16500 119244.000000
191 11391 1 0.16500 119244.000000
191 12086 1 0.16500 119244.000000
192 11392 1 0.16500 119244.000000
192 14056 1 0.16500 119244.000000
193 11393 1 0.16500 119244.000000
193 12979 1 0.16500 119244.000000
194 11393 1 0.16500 119244.000000
194 14661 1 0.16500 119244.000000
195 11393 1 0.16500 119244.000000
195 14501 1 0.16500 119244.000000
196 11393 1 0.16500 119244.000000
196 12473 1 0.16500 119244.000000
197 11394 1 0.16500 119244.000000
197 16258 1 0.16500 119244.000000
198 11394 1 0.16500 119244.000000
198 13939 1 0.16500 119244.000000
199 11394 1 0.16500 119244.000000
199 14212 1 0.16500 119244.000000
200 11394 1 0.16500 119244.000000
200 12395 1 0.16500 119244.000000
201 11395 1 0.16500 119244.000000
201 15192 1 0.16500 119244.000000
202 11395 1 0.16500 119244.000000
202 14989 1 0.16500 119244.000000
203 11395 1 0.16500 119244.000000
203 13268 1 0.16500 119244.000000
204 12487 1 0.16500 119244.000000
204 14989 1 0.16500 119244.000000
205 16642 1 0.16500 119244.000000
205 21798 1 0.16500 119244.000000
206 11396 1 0.16500 119244.000000
206 15816 1 0.16500 119244.000000
207 11396 1 0.16500 119244.000000
207 21798 1 0.16500 119244.000000
208 11396 1 0.16500 119244.000000
208 11773 1 0.16500 119244.000000
209 11397 1 0.16500 119244.000000
209 12973 1 0.16500 119244.000000
210 11397 1 0.16500 119244.000000
210 16425 1 0.16500 119244.000000
211 11397 1 0.16500 119244.000000
211 15642 1 0.16500 119244.000000
212 11397 1 0.16500 119244.000000
212 16249 1 0.16500 119244.000000
213 13061 1 0.16500 119244.000000
213 16411 1 0.16500 119244.000000
214 11398 1 0.16500 119244.000000
214 13061 1 0.16500 119244.000000
215 11398 1 0.16500 119244.000000
215 14178 1 0.16500 119244.000000
216 11398 1 0.16500 119244.000000
216 13208 1 0.16500 119244.000000
217 11399 1 0.16500 119244.000000
217 14192 1 0.16500 119244.000000
218 11399 1 0.16500 119244.000000
218 15422 1 0.16500 119244.000000
219 11399 1 0.16500 119244.000000
219 12292 1 0.16500 119244.000000
220 11399 1 0.16500 119244.000000
220 15590 1 0.16500 119244.000000
221 11400 1 0.16500 119244.000000
221 20838 1 0.16500 119244.000000
222 11400 1 0.16500 119244.000000
222 13044 1 0.16500 119244.000000
223 11400 1 0.16500 119244.000000
223 16262 1 0.16500 119244.000000
224 11401 1 0.16500 119244.000000
224 16404 1 0.16500 119244.000000
225 11401 1 0.16500 119244.000000
225 13806 1 0.16500 119244.000000
226 11401 1 0.16500 119244.000000
226 11777 1 0.16500 119244.000000
227 11401 1 0.16500 119244.000000
227 16285 1 0.16500 119244.000000
228 11402 1 0.16500 119244.000000
228 13395 1 0.16500 119244.000000
229 11402 1 0.16500 119244.000000
229 13985 1 0.16500 119244.000000
230 11402 1 0.16500 119244.000000
230 12015 1 0.16500 119244.000000
231 11402 1 0.16500 119244.000000
231 15956 1 0.16500 119244.000000
232 11403 1 0.16500 119244.000000
232 21780 1 0.16500 119244.000000
233 11403 1 0.16500 119244.000000
233 16044 1 0.16500 119244.000000
234 11403 1 0.16500 119244.000000
234 15110 1 0.16500 119244.000000
235 14039 1 0.16500 119244.000000
235 16166 1 0.16500 119244.000000
236 14039 1 0.16500 119244.000000
236 14477 1 0.16500 119244.000000
237 11404 1 0.16500 119244.000000
237 14039 1 0.16500 119244.000000
238 13232 1 0.16500 119244.000000
238 14039 1 0.16500 119244.000000
239 11405 1 0.16500 119244.000000
239 15587 1 0.16500 119244.000000
240 11405 1 0.16500 119244.000000
240 15733 1 0.16500 119244.000000
241 11405 1 0.16500 119244.000000
241 17636 1 0.16500 119244.000000
242 11406 1 0.16500 119244.000000
242 15903 1 0.16500 119244.000000
243 11406 1 0.16500 119244.000000
243 13429 1 0.16500 119244.000000
244 11406 1 0.16500 119244.000000
244 14811 1 0.16500 119244.000000
245 11407 1 0.16500 119244.000000
245 22275 1 0.16500 119244.000000
246 11408 1 0.16500 119244.000000
246 12872 1 0.16500 119244.000000
247 11408 1 0.16500 119244.000000
247 16364 1 0.16500 119244.000000
248 11408 1 0.16500 119244.000000
248 12916 1 0.16500 119244.000000
249 11408 1 0.16500 119244.000000
249 11489 1 0.16500 119244.000000
250 11807 1 0.16500 119244.000000
250 13601 1 0.16500 119244.000000
251 11409 1 0.16500 119244.000000
251 15070 1 0.16500 119244.000000
252 11409 1 0.16500 119244.000000
252 14209 1 0.16500 119244.000000
253 11409 1 0.16500 119244.000000
253 13601 1 0.16500 119244.000000
254 11410 1 0.16500 119244.000000
254 11903 1 0.16500 119244.000000
255 11410 1 0.16500 119244.000000
255 11889 1 0.16500 119244.000000
256 11411 1 0.16500 119244.000000
256 13975 1 0.16500 119244.000000
257 11411 1 0.16500 119244.000000
257 13778 1 0.16500 119244.000000
258 11411 1 0.16500 119244.000000
258 14749 1 0.16500 119244.000000
259 11411 1 0.16500 119244.000000
259 14038 1 0.16500 119244.000000
260 11412 1 0.16500 119244.000000
260 18894 1 0.16500 119244.000000
261 11412 1 0.16500 119244.000000
261 12106 1 0.16500 119244.000000
262 11412 1 0.16500 119244.000000
262 22167 1 0.16500 119244.000000
263 11412 1 0.16500 119244.000000
263 11426 1 0.16500 119244.000000
264 11413 1 0.16500 119244.000000
264 15895 1 0.16500 119244.000000
265 11413 1 0.16500 119244.000000
265 14420 1 0.16500 119244.000000
266 11413 1 0.16500 119244.000000
266 16470 1 0.16500 119244.000000
267 11413 1 0.16500 119244.000000
267 12289 1 0.16500 119244.000000
268 11414 1 0.16500 119244.000000
268 12833 1 0.16500 119244.000000
269 11414 1 0.16500 119244.000000
269 12955 1 0.16500 119244.000000
270 11414 1 0.16500 119244.000000
270 15534 1 0.16500 119244.000000
271 11414 1 0.16500 119244.000000
271 11455 1 0.16500 119244.000000
272 11415 1 0.16500 119244.000000
272 22194 1 0.16500 119244.000000
273 11415 1 0.16500 119244.000000
273 14071 1 0.16500 119244.000000
274 11415 1 0.16500 119244.000000
274 19782 1 0.16500 119244.000000
275 11416 1 0.16500 119244.000000
275 14706 1 0.16500 119244.000000
276 11416 1 0.16500 119244.000000
276 15539 1 0.16500 119244.000000
277 11416 1 0.16500 119244.000000
277 12177 1 0.16500 119244.000000
278 11416 1 0.16500 119244.000000
278 14418 1 0.16500 119244.000000
279 11417 1 0.16500 119244.000000
279 13414 1 0.16500 119244.000000
280 11417 1 0.16500 119244.000000
280 12002 1 0.16500 119244.000000
281 11417 1 0.16500 119244.000000
281 15249 1 0.16500 119244.000000
282 11417 1 0.16500 119244.000000
282 13910 1 0.16500 119244.000000
283 11418 1 0.16500 119244.000000
283 14809 1 0.16500 119244.000000
284 11418 1 0.16500 119244.000000
284 13064 1 0.16500 119244.000000
285 11418 1 0.16500 119244.000000
285 21462 1 0.16500 119244.000000
286 11419 1 0.16500 119244.000000
286 12307 1 0.16500 119244.000000
287 11419 1 0.16500 119244.000000
287 13055 1 0.16500 119244.000000
288 11419 1 0.16500 119244.000000
288 14502 1 0.16500 119244.000000
289 11419 1 0.16500 119244.000000
289 11428 1 0.16500 119244.000000
290 11420 1 0.16500 119244.000000
290 11894 1 0.16500 119244.000000
291 11420 1 0.16500 119244.000000
291 12238 1 0.16500 119244.000000
292 11420 1 0.16500 119244.000000
292 11512 1 0.16500 119244.000000
293 11894 1 0.16500 119244.000000
293 12776 1 0.16500 119244.000000
294 11421 1 0.16500 119244.000000
294 14569 1 0.16500 119244.000000
295 11421 1 0.16500 119244.000000
295 15915 1 0.16500 119244.000000
296 11421 1 0.16500 119244.000000
296 13483 1 0.16500 119244.000000
297 13483 1 0.16500 119244.000000
297 13805 1 0.16500 119244.000000
298 11422 1 0.16500 119244.000000
298 15334 1 0.16500 119244.000000
299 11422 1 0.16500 119244.000000
299 15456 1 0.16500 119244.000000
300 11422 1 0.16500 119244.000000
300 12101 1 0.16500 119244.000000
301 11422 1 0.16500 119244.000000
301 12084 1 0.16500 119244.000000
302 11423 1 0.16500 119244.000000
302 14412 1 0.16500 119244.000000
303 11423 1 0.16500 119244.000000
303 12162 1 0.16500 119244.000000
304 11423 1 0.16500 119244.000000
304 14236 1 0.16500 119244.000000
305 11423 1 0.16500 119244.000000
305 15535 1 0.16500 119244.000000
306 11424 1 0.16500 119244.000000
306 17132 1 0.16500 119244.000000
307 11424 1 0.16500 119244.000000
307 13076 1 0.16500 119244.000000
308 11424 1 0.16500 119244.000000
308 14539 1 0.16500 119244.000000
309 11424 1 0.16500 119244.000000
309 16060 1 0.16500 119244.000000
310 11425 1 0.16500 119244.000000
310 12573 1 0.16500 119244.000000
311 11425 1 0.16500 119244.000000
311 11706 1 0.16500 119244.000000
312 11425 1 0.16500 119244.000000
312 15260 1 0.16500 119244.000000
313 11425 1 0.16500 119244.000000
313 16434 1 0.16500 119244.000000
314 11426 1 0.16500 119244.000000
314 21822 1 0.16500 119244.000000
315 11426 1 0.16500 119244.000000
315 12854 1 0.16500 119244.000000
316 11427 1 0.16500 119244.000000
316 11670 1 0.16500 119244.000000
317 11427 1 0.16500 119244.000000
317 12800 1 0.16500 119244.000000
318 11427 1 0.16500 119244.000000
318 14162 1 0.16500 119244.000000
319 11427 1 0.16500 119244.000000
319 15700 1 0.16500 119244.000000
320 15831 1 0.16500 119244.000000
320 18858 1 0.16500 119244.000000
321 11428 1 0.16500 119244.000000
321 15246 1 0.16500 119244.000000
322 11428 1 0.16500 119244.000000
322 12086 1 0.16500 119244.000000
323 11428 1 0.16500 119244.000000
323 16122 1 0.16500 119244.000000
324 11429 1 0.16500 119244.000000
324 15021 1 0.16500 119244.000000
325 11429 1 0.16500 119244.000000
325 14191 1 0.16500 119244.000000
326 11429 1 0.16500 119244.000000
326 15377 1 0.16500 119244.000000
327 11429 1 0.16500 119244.000000
327 13889 1 0.16500 119244.000000
328 11430 1 0.16500 119244.000000
328 11790 1 0.16500 119244.000000
329 11430 1 0.16500 119244.000000
329 14671 1 0.16500 119244.000000
330 11430 1 0.16500 119244.000000
330 16446 1 0.16500 119244.000000
331 11430 1 0.16500 119244.000000
331 11609 1 0.16500 119244.000000
332 11431 1 0.16500 119244.000000
332 15612 1 0.16500 119244.000000
333 11431 1 0.16500 119244.000000
333 12236 1 0.16500 119244.000000
334 11431 1 0.16500 119244.000000
334 12121 1 0.16500 119244.000000
335 11431 1 0.16500 119244.000000
335 13913 1 0.16500 119244.000000
336 12819 1 0.16500 119244.000000
336 15398 1 0.16500 119244.000000
337 15034 1 0.16500 119244.000000
337 15398 1 0.16500 119244.000000
338 11432 1 0.16500 119244.000000
338 16359 1 0.16500 119244.000000
339 11732 1 0.16500 119244.000000
339 15398 1 0.16500 119244.000000
340 11433 1 0.16500 119244.000000
340 12686 1 0.16500 119244.000000
341 11433 1 0.16500 119244.000000
341 13893 1 0.16500 119244.000000
342 11433 1 0.16500 119244.000000
342 12778 1 0.16500 119244.000000
343 11433 1 0.16500 119244.000000
343 14536 1 0.16500 119244.000000
344 11434 1 0.16500 119244.000000
344 14723 1 0.16500 119244.000000
345 11434 1 0.16500 119244.000000
345 11783 1 0.16500 119244.000000
346 11434 1 0.16500 119244.000000
346 15042 1 0.16500 119244.000000
347 11434 1 0.16500 119244.000000
347 11498 1 0.16500 119244.000000
348 12865 1 0.16500 119244.000000
348 22170 1 0.16500 119244.000000
349 14098 1 0.16500 119244.000000
349 22170 1 0.16500 119244.000000
350 11435 1 0.16500 119244.000000
350 22170 1 0.16500 119244.000000
351 11435 1 0.16500 119244.000000
351 14357 1 0.16500 119244.000000
352 11436 1 0.16500 119244.000000
352 15841 1 0.16500 119244.000000
353 11436 1 0.16500 119244.000000
353 13663 1 0.16500 119244.000000
354 11436 1 0.16500 119244.000000
354 14423 1 0.16500 119244.000000
355 11436 1 0.16500 119244.000000
355 16252 1 0.16500 119244.000000
356 11437 1 0.16500 119244.000000
356 20130 1 0.16500 119244.000000
357 11437 1 0.16500 119244.000000
357 15597 1 0.16500 119244.000000
358 11437 1 0.16500 119244.000000
358 15060 1 0.16500 119244.000000
359 11437 1 0.16500 119244.000000
359 13971 1 0.16500 119244.000000
360 11438 1 0.16500 119244.000000
360 12766 1 0.16500 119244.000000
361 11438 1 0.16500 119244.000000
361 15818 1 0.16500 119244.000000
362 11438 1 0.16500 119244.000000
362 11551 1 0.16500 119244.000000
363 11438 1 0.16500 119244.000000
363 12515 1 0.16500 119244.000000
364 11439 1 0.16500 119244.000000
364 16368 1 0.16500 119244.000000
365 11439 1 0.16500 119244.000000
365 16144 1 0.16500 119244.000000
366 11439 1 0.16500 119244.000000
366 12728 1 0.16500 119244.000000
367 11439 1 0.16500 119244.000000
367 14345 1 0.16500 119244.000000
368 13835 1 0.16500 119244.000000
368 16176 1 0.16500 119244.000000
369 11440 1 0.16500 119244.000000
369 16176 1 0.16500 119244.000000
370 12403 1 0.16500 119244.000000
370 16176 1 0.16500 119244.000000
371 13125 1 0.16500 119244.000000
371 21861 1 0.16500 119244.000000
372 11441 1 0.16500 119244.000000
372 13125 1 0.16500 119244.000000
373 13125 1 0.16500 119244.000000
373 15459 1 0.16500 119244.000000
374 11441 1 0.16500 119244.000000
374 11809 1 0.16500 119244.000000
375 11511 1 0.16500 119244.000000
375 11868 1 0.16500 119244.000000
376 11868 1 0.16500 119244.000000
376 12754 1 0.16500 119244.000000
377 11442 1 0.16500 119244.000000
377 18810 1 0.16500 119244.000000
378 11442 1 0.16500 119244.000000
378 11868 1 0.16500 119244.000000
379 11443 1 0.16500 119244.000000
379 12666 1 0.16500 119244.000000
380 11443 1 0.16500 119244.000000
380 13620 1 0.16500 119244.000000
381 11443 1 0.16500 119244.000000
381 14132 1 0.16500 119244.000000
382 11443 1 0.16500 119244.000000
382 16360 1 0.16500 119244.000000
383 11444 1 0.16500 119244.000000
383 21576 1 0.16500 119244.000000
384 11444 1 0.16500 119244.000000
384 15289 1 0.16500 119244.000000
385 11444 1 0.16500 119244.000000
385 15782 1 0.16500 119244.000000
386 11444 1 0.16500 119244.000000
386 14397 1 0.16500 119244.000000
387 11445 1 0.16500 119244.000000
387 15403 1 0.16500 119244.000000
388 11445 1 0.16500 119244.000000
388 11519 1 0.16500 119244.000000
389 11445 1 0.16500 119244.000000
389 12963 1 0.16500 119244.000000
390 11445 1 0.16500 119244.000000
390 11680 1 0.16500 119244.000000
391 11446 1 0.16500 119244.000000
391 13366 1 0.16500 119244.000000
392 11446 1 0.16500 119244.000000
392 13109 1 0.16500 119244.000000
393 11446 1 0.16500 119244.000000
393 11896 1 0.16500 119244.000000
394 11446 1 0.16500 119244.000000
394 12599 1 0.16500 119244.000000
395 11447 1 0.16500 119244.000000
395 17468 1 0.16500 119244.000000
396 11447 1 0.16500 119244.000000
396 11860 1 0.16500 119244.000000
397 11448 1 0.16500 119244.000000
397 14206 1 0.16500 119244.000000
398 11625 1 0.16500 119244.000000
398 14379 1 0.16500 119244.000000
399 11448 1 0.16500 119244.000000
399 12612 1 0.16500 119244.000000
400 11448 1 0.16500 119244.000000
400 14379 1 0.16500 119244.000000
401 11449 1 0.16500 119244.000000
401 11528 1 0.16500 119244.000000
402 11449 1 0.16500 119244.000000
402 14119 1 0.16500 119244.000000
403 11449 1 0.16500 119244.000000
403 16450 1 0.16500 119244.000000
404 11449 1 0.16500 119244.000000
404 11564 1 0.16500 119244.000000
405 11450 1 0.16500 119244.000000
405 15588 1 0.16500 119244.000000
406 11450 1 0.16500 119244.000000
406 13043 1 0.16500 119244.000000
407 13589 1 0.16500 119244.000000
407 15241 1 0.16500 119244.000000
408 11450 1 0.16500 119244.000000
408 15241 1 0.16500 119244.000000
409 11451 1 0.16500 119244.000000
409 12461 1 0.16500 119244.000000
410 11451 1 0.16500 119244.000000
410 12994 1 0.16500 119244.000000
411 11451 1 0.16500 119244.000000
411 14140 1 0.16500 119244.000000
412 11451 1 0.16500 119244.000000
412 16197 1 0.16500 119244.000000
413 11452 1 0.16500 119244.000000
413 13118 1 0.16500 119244.000000
414 11452 1 0.16500 119244.000000
414 16469 1 0.16500 119244.000000
415 11452 1 0.16500 119244.000000
415 12600 1 0.16500 119244.000000
416 11452 1 0.16500 119244.000000
416 17944 1 0.16500 119244.000000
417 11453 1 0.16500 119244.000000
417 22107 1 0.16500 119244.000000
418 11453 1 0.16500 119244.000000
418 13239 1 0.16500 119244.000000
419 11453 1 0.16500 119244.000000
419 16328 1 0.16500 119244.000000
420 11454 1 0.16500 119244.000000
420 13207 1 0.16500 119244.000000
421 11454 1 0.16500 119244.000000
421 14047 1 0.16500 119244.000000
422 11454 1 0.16500 119244.000000
422 13951 1 0.16500 119244.000000
423 11454 1 0.16500 119244.000000
423 13156 1 0.16500 119244.000000
424 11455 1 0.16500 119244.000000
424 14257 1 0.16500 119244.000000
425 11455 1 0.16500 119244.000000
425 12755 1 0.16500 119244.000000
426 11455 1 0.16500 119244.000000
426 11489 1 0.16500 119244.000000
427 11456 1 0.16500 119244.000000
427 15781 1 0.16500 119244.000000
428 11456 1 0.16500 119244.000000
428 16341 1 0.16500 119244.000000
429 11456 1 0.16500 119244.000000
429 14168 1 0.16500 119244.000000
430 11456 1 0.16500 119244.000000
430 11571 1 0.16500 119244.000000
431 11457 1 0.16500 119244.000000
431 12741 1 0.16500 119244.000000
432 11457 1 0.16500 119244.000000
432 12815 1 0.16500 119244.000000
433 11457 1 0.16500 119244.000000
433 13432 1 0.16500 119244.000000
434 11457 1 0.16500 119244.000000
434 15682 1 0.16500 119244.000000
435 12091 1 0.16500 119244.000000
435 14321 1 0.16500 119244.000000
436 11458 1 0.16500 119244.000000
436 12091 1 0.16500 119244.000000
437 11458 1 0.16500 119244.000000
437 13096 1 0.16500 119244.000000
438 11458 1 0.16500 119244.000000
438 13931 1 0.16500 119244.000000
439 11459 1 0.16500 119244.000000
439 13460 1 0.16500 119244.000000
440 11459 1 0.16500 119244.000000
440 19110 1 0.16500 119244.000000
441 11460 1 0.16500 119244.000000
441 18112 1 0.16500 119244.000000
442 11460 1 0.16500 119244.000000
442 17202 1 0.16500 119244.000000
443 11460 1 0.16500 119244.000000
443 15196 1 0.16500 119244.000000
444 11460 1 0.16500 119244.000000
444 15689 1 0.16500 119244.000000
445 11461 1 0.16500 119244.000000
445 11516 1 0.16500 119244.000000
446 11461 1 0.16500 119244.000000
446 12739 1 0.16500 119244.000000
447 11461 1 0.16500 119244.000000
447 14034 1 0.16500 119244.000000
448 11461 1 0.16500 119244.000000
448 14710 1 0.16500 119244.000000
449 11462 1 0.16500 119244.000000
449 13111 1 0.16500 119244.000000
450 11462 1 0.16500 119244.000000
450 11938 1 0.16500 119244.000000
451 11463 1 0.16500 119244.000000
451 13496 1 0.16500 119244.000000
452 11463 1 0.16500 119244.000000
452 15830 1 0.16500 119244.000000
453 11463 1 0.16500 119244.000000
453 14320 1 0.16500 119244.000000
454 11463 1 0.16500 119244.000000
454 12834 1 0.16500 119244.000000
455 11464 1 0.16500 119244.000000
455 14398 1 0.16500 119244.000000
456 11464 1 0.16500 119244.000000
456 11902 1 0.16500 119244.000000
457 11464 1 0.16500 119244.000000
457 12399 1 0.16500 119244.000000
458 11464 1 0.16500 119244.000000
458 19410 1 0.16500 119244.000000
459 11465 1 0.16500 119244.000000
459 16271 1 0.16500 119244.000000
460 11465 1 0.16500 119244.000000
460 19842 1 0.16500 119244.000000
461 11466 1 0.16500 119244.000000
461 15470 1 0.16500 119244.000000
462 11466 1 0.16500 119244.000000
462 13349 1 0.16500 119244.000000
463 11466 1 0.16500 119244.000000
463 14823 1 0.16500 119244.000000
464 11466 1 0.16500 119244.000000
464 15481 1 0.16500 119244.000000
465 11467 1 0.16500 119244.000000
465 16395 1 0.16500 119244.000000
466 11467 1 0.16500 119244.000000
466 16194 1 0.16500 119244.000000
467 11467 1 0.16500 119244.000000
467 13878 1 0.16500 119244.000000
468 11467 1 0.16500 119244.000000
468 13002 1 0.16500 119244.000000
469 11468 1 0.16500 119244.000000
469 14980 1 0.16500 119244.000000
470 11468 1 0.16500 119244.000000
470 12106 1 0.16500 119244.000000
471 11468 1 0.16500 119244.000000
471 15509 1 0.16500 119244.000000
472 11468 1 0.16500 119244.000000
472 14408 1 0.16500 119244.000000
473 11469 1 0.16500 119244.000000
473 13108 1 0.16500 119244.000000
474 11469 1 0.16500 119244.000000
474 14919 1 0.16500 119244.000000
475 11470 1 0.16500 119244.000000
475 13867 1 0.16500 119244.000000
476 11470 1 0.16500 119244.000000
476 14748 1 0.16500 119244.000000
477 11470 1 0.16500 119244.000000
477 14841 1 0.16500 119244.000000
478 11470 1 0.16500 119244.000000
478 13327 1 0.16500 119244.000000
479 11471 1 0.16500 119244.000000
479 15458 1 0.16500 119244.000000
480 13976 1 0.16500 119244.000000
480 19518 1 0.16500 119244.000000
481 16250 1 0.16500 119244.000000
481 21849 1 0.16500 119244.000000
482 11471 1 0.16500 119244.000000
482 21849 1 0.16500 119244.000000
483 11472 1 0.16500 119244.000000
483 12941 1 0.16500 119244.000000
484 11472 1 0.16500 119244.000000
484 12869 1 0.16500 119244.000000
485 11472 1 0.16500 119244.000000
485 14544 1 0.16500 119244.000000
486 11472 1 0.16500 119244.000000
486 14144 1 0.16500 119244.000000
487 11473 1 0.16500 119244.000000
487 11987 1 0.16500 119244.000000
488 11473 1 0.16500 119244.000000
488 11590 1 0.16500 119244.000000
489 11473 1 0.16500 119244.000000
489 16110 1 0.16500 119244.000000
490 11473 1 0.16500 119244.000000
490 13226 1 0.16500 119244.000000
491 11474 1 0.16500 119244.000000
491 21030 1 0.16500 119244.000000
492 11474 1 0.16500 119244.000000
492 13984 1 0.16500 119244.000000
493 11474 1 0.16500 119244.000000
493 16469 1 0.16500 119244.000000
494 11474 1 0.16500 119244.000000
494 15763 1 0.16500 119244.000000
495 13670 1 0.16500 119244.000000
495 16080 1 0.16500 119244.000000
496 11475 1 0.16500 119244.000000
496 15540 1 0.16500 119244.000000
497 11475 1 0.16500 119244.000000
497 13670 1 0.16500 119244.000000
498 11475 1 0.16500 119244.000000
498 15349 1 0.16500 119244.000000
499 14819 1 0.16500 119244.000000
499 21066 1 0.16500 119244.000000
500 11476 1 0.16500 119244.000000
500 14826 1 0.16500 119244.000000
501 11476 1 0.16500 119244.000000
501 11883 1 0.16500 119244.000000
502 11476 1 0.16500 119244.000000
502 15104 1 0.16500 119244.000000
503 11476 1 0.16500 119244.000000
503 11485 1 0.16500 119244.000000
504 11477 1 0.16500 119244.000000
504 15175 1 0.16500 119244.000000
505 11477 1 0.16500 119244.000000
505 13219 1 0.16500 119244.000000
506 11477 1 0.16500 119244.000000
506 14624 1 0.16500 119244.000000
507 11477 1 0.16500 119244.000000
507 12441 1 0.16500 119244.000000
508 11478 1 0.16500 119244.000000
508 13473 1 0.16500 119244.000000
509 11478 1 0.16500 119244.000000
509 13609 1 0.16500 119244.000000
510 11478 1 0.16500 119244.000000
510 13398 1 0.16500 119244.000000
511 11478 1 0.16500 119244.000000
511 15494 1 0.16500 119244.000000
512 11479 1 0.16500 119244.000000
512 21138 1 0.16500 119244.000000
513 11479 1 0.16500 119244.000000
513 12255 1 0.16500 119244.000000
514 11479 1 0.16500 119244.000000
514 17902 1 0.16500 119244.000000
515 11480 1 0.16500 119244.000000
515 13163 1 0.16500 119244.000000
516 11480 1 0.16500 119244.000000
516 15913 1 0.16500 119244.000000
517 11480 1 0.16500 119244.000000
517 14791 1 0.16500 119244.000000
518 11481 1 0.16500 119244.000000
518 22206 1 0.16500 119244.000000
519 11481 1 0.16500 119244.000000
519 19734 1 0.16500 119244.000000
520 11481 1 0.16500 119244.000000
520 16346 1 0.16500 119244.000000
521 11482 1 0.16500 119244.000000
521 20766 1 0.16500 119244.000000
522 11482 1 0.16500 119244.000000
522 15299 1 0.16500 119244.000000
523 19830 1 0.16500 119244.000000
523 20766 1 0.16500 119244.000000
524 11482 1 0.16500 119244.000000
524 12259 1 0.16500 119244.000000
525 11483 1 0.16500 119244.000000
525 16237 1 0.16500 119244.000000
526 11483 1 0.16500 119244.000000
526 16443 1 0.16500 119244.000000
527 11483 1 0.16500 119244.000000
527 16293 1 0.16500 119244.000000
528 11483 1 0.16500 119244.000000
528 11915 1 0.16500 119244.000000
529 11484 1 0.16500 119244.000000
529 12584 1 0.16500 119244.000000
530 11484 1 0.16500 119244.000000
530 15507 1 0.16500 119244.000000
531 11484 1 0.16500 119244.000000
531 11660 1 0.16500 119244.000000
532 11484 1 0.16500 119244.000000
532 15644 1 0.16500 119244.000000
533 11485 1 0.16500 119244.000000
533 12167 1 0.16500 119244.000000
534 11485 1 0.16500 119244.000000
534 15343 1 0.16500 119244.000000
535 11485 1 0.16500 119244.000000
535 12986 1 0.16500 119244.000000
536 11486 1 0.16500 119244.000000
536 15730 1 0.16500 119244.000000
537 11486 1 0.16500 119244.000000
537 12406 1 0.16500 119244.000000
538 11486 1 0.16500 119244.000000
538 15824 1 0.16500 119244.000000
539 11487 1 0.16500 119244.000000
539 13960 1 0.16500 119244.000000
540 11487 1 0.16500 119244.000000
540 15641 1 0.16500 119244.000000
541 11487 1 0.16500 119244.000000
541 13548 1 0.16500 119244.000000
542 11487 1 0.16500 119244.000000
542 12875 1 0.16500 119244.000000
543 12319 1 0.16500 119244.000000
543 12621 1 0.16500 119244.000000
544 12621 1 0.16500 119244.000000
544 16215 1 0.16500 119244.000000
545 11488 1 0.16500 119244.000000
545 12621 1 0.16500 119244.000000
546 11489 1 0.16500 119244.000000
546 12891 1 0.16500 119244.000000
547 11489 1 0.16500 119244.000000
547 12482 1 0.16500 119244.000000
548 11490 1 0.16500 119244.000000
548 15981 1 0.16500 119244.000000
549 11490 1 0.16500 119244.000000
549 14285 1 0.16500 119244.000000
550 11490 1 0.16500 119244.000000
550 15526 1 0.16500 119244.000000
551 11490 1 0.16500 119244.000000
551 15784 1 0.16500 119244.000000
552 11491 1 0.16500 119244.000000
552 13227 1 0.16500 119244.000000
553 11491 1 0.16500 119244.000000
553 11648 1 0.16500 119244.000000
554 11491 1 0.16500 119244.000000
554 15705 1 0.16500 119244.000000
555 11648 1 0.16500 119244.000000
555 13040 1 0.16500 119244.000000
556 11492 1 0.16500 119244.000000
556 16144 1 0.16500 119244.000000
557 11492 1 0.16500 119244.000000
557 13443 1 0.16500 119244.000000
558 11492 1 0.16500 119244.000000
558 13916 1 0.16500 119244.000000
559 11493 1 0.16500 119244.000000
559 12522 1 0.16500 119244.000000
560 11493 1 0.16500 119244.000000
560 11808 1 0.16500 119244.000000
561 11493 1 0.16500 119244.000000
561 12808 1 0.16500 119244.000000
562 11494 1 0.16500 119244.000000
562 16426 1 0.16500 119244.000000
563 11494 1 0.16500 119244.000000
563 12408 1 0.16500 119244.000000
564 11494 1 0.16500 119244.000000
564 15019 1 0.16500 119244.000000
565 11494 1 0.16500 119244.000000
565 14049 1 0.16500 119244.000000
566 11495 1 0.16500 119244.000000
566 12126 1 0.16500 119244.000000
567 11495 1 0.16500 119244.000000
567 14046 1 0.16500 119244.000000
568 11495 1 0.16500 119244.000000
568 14949 1 0.16500 119244.000000
569 11495 1 0.16500 119244.000000
569 13202 1 0.16500 119244.000000
570 11496 1 0.16500 119244.000000
570 11631 1 0.16500 119244.000000
571 11496 1 0.16500 119244.000000
571 12552 1 0.16500 119244.000000
572 11496 1 0.16500 119244.000000
572 16301 1 0.16500 119244.000000
573 11496 1 0.16500 119244.000000
573 13392 1 0.16500 119244.000000
574 11497 1 0.16500 119244.000000
574 14718 1 0.16500 119244.000000
575 11497 1 0.16500 119244.000000
575 15382 1 0.16500 119244.000000
576 11497 1 0.16500 119244.000000
576 13282 1 0.16500 119244.000000
577 11497 1 0.16500 119244.000000
577 12431 1 0.16500 119244.000000
578 14566 1 0.16500 119244.000000
578 18474 1 0.16500 119244.000000
579 12149 1 0.16500 119244.000000
579 18474 1 0.16500 119244.000000
580 11498 1 0.16500 119244.000000
580 12120 1 0.16500 119244.000000
581 11498 1 0.16500 119244.000000
581 11966 1 0.16500 119244.000000
582 11498 1 0.16500 119244.000000
582 13598 1 0.16500 119244.000000
583 11499 1 0.16500 119244.000000
583 14627 1 0.16500 119244.000000
584 11499 1 0.16500 119244.000000
584 13316 1 0.16500 119244.000000
585 11500 1 0.16500 119244.000000
585 15999 1 0.16500 119244.000000
586 11500 1 0.16500 119244.000000
586 15385 1 0.16500 119244.000000
587 11500 1 0.16500 119244.000000
587 16364 1 0.16500 119244.000000
588 11500 1 0.16500 119244.000000
588 12256 1 0.16500 119244.000000
589 11501 1 0.16500 119244.000000
589 14575 1 0.16500 119244.000000
590 11501 1 0.16500 119244.000000
590 16227 1 0.16500 119244.000000
591 11501 1 0.16500 119244.000000
591 12378 1 0.16500 119244.000000
592 11501 1 0.16500 119244.000000
592 13095 1 0.16500 119244.000000
593 11502 1 0.16500 119244.000000
593 12200 1 0.16500 119244.000000
594 11502 1 0.16500 119244.000000
594 14591 1 0.16500 119244.000000
595 11502 1 0.16500 119244.000000
595 15554 1 0.16500 119244.000000
596 11502 1 0.16500 119244.000000
596 14752 1 0.16500 119244.000000
597 11503 1 0.16500 119244.000000
597 14381 1 0.16500 119244.000000
598 11503 1 0.16500 119244.000000
598 17104 1 0.16500 119244.000000
599 11503 1 0.16500 119244.000000
599 11556 1 0.16500 119244.000000
600 11503 1 0.16500 119244.000000
600 13222 1 0.16500 119244.000000
601 11504 1 0.16500 119244.000000
601 16740 1 0.16500 119244.000000
602 11504 1 0.16500 119244.000000
602 15401 1 0.16500 119244.000000
603 11504 1 0.16500 119244.000000
603 17426 1 0.16500 119244.000000
604 11505 1 0.16500 119244.000000
604 14429 1 0.16500 119244.000000
605 11505 1 0.16500 119244.000000
605 14647 1 0.16500 119244.000000
606 11505 1 0.16500 119244.000000
606 11506 1 0.16500 119244.000000
607 11505 1 0.16500 119244.000000
607 16037 1 0.16500 119244.000000
608 11506 1 0.16500 119244.000000
608 12823 1 0.16500 119244.000000
609 11506 1 0.16500 119244.000000
609 11637 1 0.16500 119244.000000
610 11506 1 0.16500 119244.000000
610 12724 1 0.16500 119244.000000
611 11507 1 0.16500 119244.000000
611 13600 1 0.16500 119244.000000
612 11507 1 0.16500 119244.000000
612 12312 1 0.16500 119244.000000
613 11507 1 0.16500 119244.000000
613 15663 1 0.16500 119244.000000
614 11507 1 0.16500 119244.000000
614 16502 1 0.16500 119244.000000
615 11508 1 0.16500 119244.000000
615 14884 1 0.16500 119244.000000
616 11508 1 0.16500 119244.000000
616 14399 1 0.16500 119244.000000
617 11508 1 0.16500 119244.000000
617 15201 1 0.16500 119244.000000
618 11508 1 0.16500 119244.000000
618 14148 1 0.16500 119244.000000
619 11509 1 0.16500 119244.000000
619 14855 1 0.16500 119244.000000
620 11509 1 0.16500 119244.000000
620 22029 1 0.16500 119244.000000
621 11509 1 0.16500 119244.000000
621 14540 1 0.16500 119244.000000
622 11510 1 0.16500 119244.000000
622 15479 1 0.16500 119244.000000
623 11510 1 0.16500 119244.000000
623 12638 1 0.16500 119244.000000
624 11510 1 0.16500 119244.000000
624 13376 1 0.16500 119244.000000
625 11510 1 0.16500 119244.000000
625 13781 1 0.16500 119244.000000
626 11511 1 0.16500 119244.000000
626 15095 1 0.16500 119244.000000
627 11511 1 0.16500 119244.000000
627 15387 1 0.16500 119244.000000
628 11511 1 0.16500 119244.000000
628 12029 1 0.16500 119244.000000
629 11512 1 0.16500 119244.000000
629 11519 1 0.16500 119244.000000
630 11512 1 0.16500 119244.000000
630 13788 1 0.16500 119244.000000
631 11512 1 0.16500 119244.000000
631 15611 1 0.16500 119244.000000
632 11513 1 0.16500 119244.000000
632 15685 1 0.16500 119244.000000
633 11513 1 0.16500 119244.000000
633 13964 1 0.16500 119244.000000
634 11513 1 0.16500 119244.000000
634 12423 1 0.16500 119244.000000
635 11513 1 0.16500 119244.000000
635 12097 1 0.16500 119244.000000
636 11514 1 0.16500 119244.000000
636 15359 1 0.16500 119244.000000
637 11514 1 0.16500 119244.000000
637 12165 1 0.16500 119244.000000
638 11514 1 0.16500 119244.000000
638 14257 1 0.16500 119244.000000
639 11514 1 0.16500 119244.000000
639 15124 1 0.16500 119244.000000
640 11515 1 0.16500 119244.000000
640 11828 1 0.16500 119244.000000
641 11515 1 0.16500 119244.000000
641 12321 1 0.16500 119244.000000
642 11515 1 0.16500 119244.000000
642 14061 1 0.16500 119244.000000
643 11515 1 0.16500 119244.000000
643 15103 1 0.16500 119244.000000
644 11516 1 0.16500 119244.000000
644 12311 1 0.16500 119244.000000
645 11516 1 0.16500 119244.000000
645 16518 1 0.16500 119244.000000
646 11516 1 0.16500 119244.000000
646 11797 1 0.16500 119244.000000
647 11517 1 0.16500 119244.000000
647 12749 1 0.16500 119244.000000
648 11517 1 0.16500 119244.000000
648 14576 1 0.16500 119244.000000
649 11517 1 0.16500 119244.000000
649 14121 1 0.16500 119244.000000
650 11517 1 0.16500 119244.000000
650 15530 1 0.16500 119244.000000
651 11518 1 0.16500 119244.000000
651 13593 1 0.16500 119244.000000
652 11518 1 0.16500 119244.000000
652 18420 1 0.16500 119244.000000
653 11518 1 0.16500 119244.000000
653 14146 1 0.16500 119244.000000
654 11518 1 0.16500 119244.000000
654 19998 1 0.16500 119244.000000
655 11519 1 0.16500 119244.000000
655 12131 1 0.16500 119244.000000
656 11519 1 0.16500 119244.000000
656 11928 1 0.16500 119244.000000
657 11520 1 0.16500 119244.000000
657 13707 1 0.16500 119244.000000
658 11520 1 0.16500 119244.000000
658 12519 1 0.16500 119244.000000
659 11520 1 0.16500 119244.000000
659 13291 1 0.16500 119244.000000
660 12519 1 0.16500 119244.000000
660 16509 1 0.16500 119244.000000
661 11521 1 0.16500 119244.000000
661 15989 1 0.16500 119244.000000
662 11521 1 0.16500 119244.000000
662 16433 1 0.16500 119244.000000
663 14491 1 0.16500 119244.000000
663 16433 1 0.16500 119244.000000
664 11521 1 0.16500 119244.000000
664 12547 1 0.16500 119244.000000
665 11522 1 0.16500 119244.000000
665 15698 1 0.16500 119244.000000
666 14469 1 0.16500 119244.000000
666 15698 1 0.16500 119244.000000
667 11522 1 0.16500 119244.000000
667 13221 1 0.16500 119244.000000
668 11522 1 0.16500 119244.000000
668 11694 1 0.16500 119244.000000
669 11523 1 0.16500 119244.000000
669 12320 1 0.16500 119244.000000
670 11523 1 0.16500 119244.000000
670 14950 1 0.16500 119244.000000
671 11524 1 0.16500 119244.000000
671 14082 1 0.16500 119244.000000
672 11524 1 0.16500 119244.000000
672 14978 1 0.16500 119244.000000
673 12348 1 0.16500 119244.000000
673 14082 1 0.16500 119244.000000
674 11524 1 0.16500 119244.000000
674 12815 1 0.16500 119244.000000
675 12543 1 0.16500 119244.000000
675 18486 1 0.16500 119244.000000
676 15250 1 0.16500 119244.000000
676 18486 1 0.16500 119244.000000
677 11874 1 0.16500 119244.000000
677 18486 1 0.16500 119244.000000
678 11525 1 0.16500 119244.000000
678 11572 1 0.16500 119244.000000
679 11525 1 0.16500 119244.000000
679 13886 1 0.16500 119244.000000
680 11525 1 0.16500 119244.000000
680 16302 1 0.16500 119244.000000
681 11572 1 0.16500 119244.000000
681 15737 1 0.16500 119244.000000
682 11526 1 0.16500 119244.000000
682 12872 1 0.16500 119244.000000
683 14041 1 0.16500 119244.000000
683 15534 1 0.16500 119244.000000
684 11526 1 0.16500 119244.000000
684 13674 1 0.16500 119244.000000
685 11526 1 0.16500 119244.000000
685 14041 1 0.16500 119244.000000
686 11527 1 0.16500 119244.000000
686 13175 1 0.16500 119244.000000
687 11527 1 0.16500 119244.000000
687 11679 1 0.16500 119244.000000
688 11527 1 0.16500 119244.000000
688 15725 1 0.16500 119244.000000
689 11527 1 0.16500 119244.000000
689 15010 1 0.16500 119244.000000
690 11528 1 0.16500 119244.000000
690 12020 1 0.16500 119244.000000
691 11819 1 0.16500 119244.000000
691 12979 1 0.16500 119244.000000
692 11528 1 0.16500 119244.000000
692 11819 1 0.16500 119244.000000
693 11529 1 0.16500 119244.000000
693 13664 1 0.16500 119244.000000
694 11529 1 0.16500 119244.000000
694 13935 1 0.16500 119244.000000
695 11529 1 0.16500 119244.000000
695 12050 1 0.16500 119244.000000
696 11529 1 0.16500 119244.000000
696 18846 1 0.16500 119244.000000
697 11530 1 0.16500 119244.000000
697 13675 1 0.16500 119244.000000
698 11530 1 0.16500 119244.000000
698 13472 1 0.16500 119244.000000
699 11530 1 0.16500 119244.000000
699 12087 1 0.16500 119244.000000
700 11530 1 0.16500 119244.000000
700 12774 1 0.16500 119244.000000
701 11531 1 0.16500 119244.000000
701 12949 1 0.16500 119244.000000
702 11531 1 0.16500 119244.000000
702 14273 1 0.16500 119244.000000
703 11531 1 0.16500 119244.000000
703 14516 1 0.16500 119244.000000
704 11532 1 0.16500 119244.000000
704 12506 1 0.16500 119244.000000
705 11532 1 0.16500 119244.000000
705 14057 1 0.16500 119244.000000
706 11532 1 0.16500 119244.000000
706 14131 1 0.16500 119244.000000
707 11532 1 0.16500 119244.000000
707 13408 1 0.16500 119244.000000
708 11533 1 0.16500 119244.000000
708 22236 1 0.16500 119244.000000
709 11533 1 0.16500 119244.000000
709 12728 1 0.16500 119244.000000
710 11533 1 0.16500 119244.000000
710 14646 1 0.16500 119244.000000
711 11533 1 0.16500 119244.000000
711 13342 1 0.16500 119244.000000
712 11534 1 0.16500 119244.000000
712 16496 1 0.16500 119244.000000
713 11534 1 0.16500 119244.000000
713 14517 1 0.16500 119244.000000
714 11534 1 0.16500 119244.000000
714 14623 1 0.16500 119244.000000
715 14623 1 0.16500 119244.000000
715 15044 1 0.16500 119244.000000
716 13330 1 0.16500 119244.000000
716 15401 1 0.16500 119244.000000
717 11535 1 0.16500 119244.000000
717 15401 1 0.16500 119244.000000
718 11535 1 0.16500 119244.000000
718 19482 1 0.16500 119244.000000
719 11536 1 0.16500 119244.000000
719 15075 1 0.16500 119244.000000
720 11536 1 0.16500 119244.000000
720 12294 1 0.16500 119244.000000
721 11536 1 0.16500 119244.000000
721 22254 1 0.16500 119244.000000
722 11537 1 0.16500 119244.000000
722 14304 1 0.16500 119244.000000
723 11577 1 0.16500 119244.000000
723 13990 1 0.16500 119244.000000
724 13990 1 0.16500 119244.000000
724 14304 1 0.16500 119244.000000
725 11538 1 0.16500 119244.000000
725 13676 1 0.16500 119244.000000
726 11538 1 0.16500 119244.000000
726 13562 1 0.16500 119244.000000
727 11538 1 0.16500 119244.000000
727 12406 1 0.16500 119244.000000
728 11538 1 0.16500 119244.000000
728 12956 1 0.16500 119244.000000
729 11539 1 0.16500 119244.000000
729 12282 1 0.16500 119244.000000
730 11539 1 0.16500 119244.000000
730 15940 1 0.16500 119244.000000
731 11539 1 0.16500 119244.000000
731 16165 1 0.16500 119244.000000
732 11539 1 0.16500 119244.000000
732 12700 1 0.16500 119244.000000
733 11540 1 0.16500 119244.000000
733 15527 1 0.16500 119244.000000
734 11540 1 0.16500 119244.000000
734 12080 1 0.16500 119244.000000
735 11540 1 0.16500 119244.000000
735 16192 1 0.16500 119244.000000
736 11540 1 0.16500 119244.000000
736 14752 1 0.16500 119244.000000
737 11541 1 0.16500 119244.000000
737 15610 1 0.16500 119244.000000
738 11541 1 0.16500 119244.000000
738 12396 1 0.16500 119244.000000
739 11541 1 0.16500 119244.000000
739 12391 1 0.16500 119244.000000
740 11541 1 0.16500 119244.000000
740 12526 1 0.16500 119244.000000
741 11542 1 0.16500 119244.000000
741 18726 1 0.16500 119244.000000
742 11542 1 0.16500 119244.000000
742 20370 1 0.16500 119244.000000
743 11542 1 0.16500 119244.000000
743 14759 1 0.16500 119244.000000
744 11542 1 0.16500 119244.000000
744 13539 1 0.16500 119244.000000
745 11543 1 0.16500 119244.000000
745 12303 1 0.16500 119244.000000
746 11543 1 0.16500 119244.000000
746 13581 1 0.16500 119244.000000
747 11543 1 0.16500 119244.000000
747 14116 1 0.16500 119244.000000
748 11543 1 0.16500 119244.000000
748 14843 1 0.16500 119244.000000
749 11544 1 0.16500 119244.000000
749 15351 1 0.16500 119244.000000
750 11544 1 0.16500 119244.000000
750 14724 1 0.16500 119244.000000
751 11544 1 0.16500 119244.000000
751 15230 1 0.16500 119244.000000
752 11544 1 0.16500 119244.000000
752 13518 1 0.16500 119244.000000
753 11545 1 0.16500 119244.000000
753 12617 1 0.16500 119244.000000
754 11545 1 0.16500 119244.000000
754 12601 1 0.16500 119244.000000
755 11545 1 0.16500 119244.000000
755 12306 1 0.16500 119244.000000
756 11545 1 0.16500 119244.000000
756 12049 1 0.16500 119244.000000
757 11546 1 0.16500 119244.000000
757 12540 1 0.16500 119244.000000
758 11546 1 0.16500 119244.000000
758 11647 1 0.16500 119244.000000
759 11546 1 0.16500 119244.000000
759 12923 1 0.16500 119244.000000
760 11526 1 0.16500 119244.000000
760 11546 1 0.16500 119244.000000
761 11547 1 0.16500 119244.000000
761 13050 1 0.16500 119244.000000
762 11547 1 0.16500 119244.000000
762 13017 1 0.16500 119244.000000
763 11547 1 0.16500 119244.000000
763 14951 1 0.16500 119244.000000
764 11547 1 0.16500 119244.000000
764 15688 1 0.16500 119244.000000
765 11548 1 0.16500 119244.000000
765 13876 1 0.16500 119244.000000
766 11548 1 0.16500 119244.000000
766 14467 1 0.16500 119244.000000
767 11548 1 0.16500 119244.000000
767 13974 1 0.16500 119244.000000
768 11548 1 0.16500 119244.000000
768 14656 1 0.16500 119244.000000
769 11549 1 0.16500 119244.000000
769 12050 1 0.16500 119244.000000
770 11432 1 0.16500 119244.000000
770 11549 1 0.16500 119244.000000
771 11549 1 0.16500 119244.000000
771 14103 1 0.16500 119244.000000
772 11549 1 0.16500 119244.000000
772 14637 1 0.16500 119244.000000
773 11550 1 0.16500 119244.000000
773 13550 1 0.16500 119244.000000
774 11550 1 0.16500 119244.000000
774 15229 1 0.16500 119244.000000
775 11550 1 0.16500 119244.000000
775 16670 1 0.16500 119244.000000
776 11551 1 0.16500 119244.000000
776 15911 1 0.16500 119244.000000
777 11551 1 0.16500 119244.000000
777 13795 1 0.16500 119244.000000
778 13795 1 0.16500 119244.000000
778 14380 1 0.16500 119244.000000
779 11552 1 0.16500 119244.000000
779 17874 1 0.16500 119244.000000
780 11552 1 0.16500 119244.000000
780 13804 1 0.16500 119244.000000
781 11552 1 0.16500 119244.000000
781 12477 1 0.16500 119244.000000
782 11552 1 0.16500 119244.000000
782 16314 1 0.16500 119244.000000
783 11553 1 0.16500 119244.000000
783 21831 1 0.16500 119244.000000
784 11553 1 0.16500 119244.000000
784 12280 1 0.16500 119244.000000
785 11553 1 0.16500 119244.000000
785 22323 1 0.16500 119244.000000
786 11554 1 0.16500 119244.000000
786 14360 1 0.16500 119244.000000
787 11554 1 0.16500 119244.000000
787 13223 1 0.16500 119244.000000
788 11554 1 0.16500 119244.000000
788 14242 1 0.16500 119244.000000
789 11554 1 0.16500 119244.000000
789 15967 1 0.16500 119244.000000
790 11555 1 0.16500 119244.000000
790 16256 1 0.16500 119244.000000
791 11555 1 0.16500 119244.000000
791 16076 1 0.16500 119244.000000
792 11555 1 0.16500 119244.000000
792 22083 1 0.16500 119244.000000
793 14434 1 0.16500 119244.000000
793 21987 1 0.16500 119244.000000
794 11556 1 0.16500 119244.000000
794 15360 1 0.16500 119244.000000
795 11556 1 0.16500 119244.000000
795 15878 1 0.16500 119244.000000
796 11556 1 0.16500 119244.000000
796 12587 1 0.16500 119244.000000
797 11557 1 0.16500 119244.000000
797 12665 1 0.16500 119244.000000
798 11557 1 0.16500 119244.000000
798 14068 1 0.16500 119244.000000
799 11557 1 0.16500 119244.000000
799 21699 1 0.16500 119244.000000
800 11558 1 0.16500 119244.000000
800 13030 1 0.16500 119244.000000
801 11558 1 0.16500 119244.000000
801 12242 1 0.16500 119244.000000
802 11559 1 0.16500 119244.000000
802 15633 1 0.16500 119244.000000
803 11559 1 0.16500 119244.000000
803 15197 1 0.16500 119244.000000
804 11559 1 0.16500 119244.000000
804 12821 1 0.16500 119244.000000
805 11559 1 0.16500 119244.000000
805 13632 1 0.16500 119244.000000
806 11560 1 0.16500 119244.000000
806 11900 1 0.16500 119244.000000
807 11560 1 0.16500 119244.000000
807 16115 1 0.16500 119244.000000
808 11560 1 0.16500 119244.000000
808 13178 1 0.16500 119244.000000
809 11900 1 0.16500 119244.000000
809 14002 1 0.16500 119244.000000
810 14760 1 0.16500 119244.000000
810 15748 1 0.16500 119244.000000
811 11806 1 0.16500 119244.000000
811 15748 1 0.16500 119244.000000
812 15748 1 0.16500 119244.000000
812 16161 1 0.16500 119244.000000
813 11561 1 0.16500 119244.000000
813 15748 1 0.16500 119244.000000
814 11562 1 0.16500 119244.000000
814 15390 1 0.16500 119244.000000
815 11562 1 0.16500 119244.000000
815 13296 1 0.16500 119244.000000
816 11562 1 0.16500 119244.000000
816 13864 1 0.16500 119244.000000
817 11562 1 0.16500 119244.000000
817 16271 1 0.16500 119244.000000
818 11563 1 0.16500 119244.000000
818 13165 1 0.16500 119244.000000
819 11563 1 0.16500 119244.000000
819 16062 1 0.16500 119244.000000
820 11563 1 0.16500 119244.000000
820 14797 1 0.16500 119244.000000
821 11563 1 0.16500 119244.000000
821 15167 1 0.16500 119244.000000
822 11564 1 0.16500 119244.000000
822 12336 1 0.16500 119244.000000
823 11564 1 0.16500 119244.000000
823 13501 1 0.16500 119244.000000
824 11564 1 0.16500 119244.000000
824 16355 1 0.16500 119244.000000
825 11565 1 0.16500 119244.000000
825 16323 1 0.16500 119244.000000
826 15873 1 0.16500 119244.000000
826 16323 1 0.16500 119244.000000
827 11565 1 0.16500 119244.000000
827 15352 1 0.16500 119244.000000
828 11565 1 0.16500 119244.000000
828 12067 1 0.16500 119244.000000
829 11566 1 0.16500 119244.000000
829 15022 1 0.16500 119244.000000
830 11566 1 0.16500 119244.000000
830 14216 1 0.16500 119244.000000
831 11566 1 0.16500 119244.000000
831 14459 1 0.16500 119244.000000
832 11566 1 0.16500 119244.000000
832 14106 1 0.16500 119244.000000
833 11567 1 0.16500 119244.000000
833 16125 1 0.16500 119244.000000
834 11567 1 0.16500 119244.000000
834 16077 1 0.16500 119244.000000
835 11567 1 0.16500 119244.000000
835 15641 1 0.16500 119244.000000
836 11567 1 0.16500 119244.000000
836 15856 1 0.16500 119244.000000
837 11568 1 0.16500 119244.000000
837 19758 1 0.16500 119244.000000
838 11568 1 0.16500 119244.000000
838 13306 1 0.16500 119244.000000
839 11568 1 0.16500 119244.000000
839 15700 1 0.16500 119244.000000
840 11569 1 0.16500 119244.000000
840 19494 1 0.16500 119244.000000
841 11570 1 0.16500 119244.000000
841 12693 1 0.16500 119244.000000
842 11570 1 0.16500 119244.000000
842 16166 1 0.16500 119244.000000
843 11561 1 0.16500 119244.000000
843 11570 1 0.16500 119244.000000
844 11570 1 0.16500 119244.000000
844 14678 1 0.16500 119244.000000
845 18834 1 0.16500 119244.000000
845 21777 1 0.16500 119244.000000
846 11571 1 0.16500 119244.000000
846 14667 1 0.16500 119244.000000
847 11571 1 0.16500 119244.000000
847 12028 1 0.16500 119244.000000
848 11571 1 0.16500 119244.000000
848 12812 1 0.16500 119244.000000
849 11572 1 0.16500 119244.000000
849 14272 1 0.16500 119244.000000
850 11525 1 0.16500 119244.000000
850 13119 1 0.16500 119244.000000
851 11572 1 0.16500 119244.000000
851 15291 1 0.16500 119244.000000
852 11573 1 0.16500 119244.000000
852 15936 1 0.16500 119244.000000
853 11573 1 0.16500 119244.000000
853 22098 1 0.16500 119244.000000
854 11573 1 0.16500 119244.000000
854 11907 1 0.16500 119244.000000
855 11573 1 0.16500 119244.000000
855 12317 1 0.16500 119244.000000
856 11574 1 0.16500 119244.000000
856 11628 1 0.16500 119244.000000
857 11574 1 0.16500 119244.000000
857 14436 1 0.16500 119244.000000
858 11574 1 0.16500 119244.000000
858 12846 1 0.16500 119244.000000
859 11574 1 0.16500 119244.000000
859 15762 1 0.16500 119244.000000
860 11575 1 0.16500 119244.000000
860 14787 1 0.16500 119244.000000
861 11575 1 0.16500 119244.000000
861 12817 1 0.16500 119244.000000
862 11575 1 0.16500 119244.000000
862 16243 1 0.16500 119244.000000
863 11575 1 0.16500 119244.000000
863 16292 1 0.16500 119244.000000
864 11576 1 0.16500 119244.000000
864 20550 1 0.16500 119244.000000
865 11576 1 0.16500 119244.000000
865 11607 1 0.16500 119244.000000
866 11607 1 0.16500 119244.000000
866 15078 1 0.16500 119244.000000
867 11576 1 0.16500 119244.000000
867 22338 1 0.16500 119244.000000
868 11577 1 0.16500 119244.000000
868 21450 1 0.16500 119244.000000
869 11577 1 0.16500 119244.000000
869 11622 1 0.16500 119244.000000
870 11577 1 0.16500 119244.000000
870 13229 1 0.16500 119244.000000
871 11578 1 0.16500 119244.000000
871 12846 1 0.16500 119244.000000
872 11578 1 0.16500 119244.000000
872 13630 1 0.16500 119244.000000
873 11578 1 0.16500 119244.000000
873 15227 1 0.16500 119244.000000
874 11578 1 0.16500 119244.000000
874 15655 1 0.16500 119244.000000
875 11579 1 0.16500 119244.000000
875 12047 1 0.16500 119244.000000
876 11579 1 0.16500 119244.000000
876 12130 1 0.16500 119244.000000
877 11579 1 0.16500 119244.000000
877 15484 1 0.16500 119244.000000
878 11579 1 0.16500 119244.000000
878 13121 1 0.16500 119244.000000
879 11580 1 0.16500 119244.000000
879 15979 1 0.16500 119244.000000
880 11580 1 0.16500 119244.000000
880 15281 1 0.16500 119244.000000
881 11580 1 0.16500 119244.000000
881 14511 1 0.16500 119244.000000
882 11580 1 0.16500 119244.000000
882 12418 1 0.16500 119244.000000
883 11581 1 0.16500 119244.000000
883 13444 1 0.16500 119244.000000
884 11581 1 0.16500 119244.000000
884 15358 1 0.16500 119244.000000
885 11581 1 0.16500 119244.000000
885 15206 1 0.16500 119244.000000
886 11581 1 0.16500 119244.000000
886 14463 1 0.16500 119244.000000
887 11582 1 0.16500 119244.000000
887 13999 1 0.16500 119244.000000
888 11582 1 0.16500 119244.000000
888 14364 1 0.16500 119244.000000
889 11582 1 0.16500 119244.000000
889 19830 1 0.16500 119244.000000
890 11583 1 0.16500 119244.000000
890 14531 1 0.16500 119244.000000
891 11583 1 0.16500 119244.000000
891 13597 1 0.16500 119244.000000
892 11583 1 0.16500 119244.000000
892 16099 1 0.16500 119244.000000
893 11583 1 0.16500 119244.000000
893 12579 1 0.16500 119244.000000
894 11584 1 0.16500 119244.000000
894 11673 1 0.16500 119244.000000
895 12031 1 0.16500 119244.000000
895 12439 1 0.16500 119244.000000
896 11673 1 0.16500 119244.000000
896 22101 1 0.16500 119244.000000
897 12439 1 0.16500 119244.000000
897 14837 1 0.16500 119244.000000
898 11585 1 0.16500 119244.000000
898 14032 1 0.16500 119244.000000
899 11585 1 0.16500 119244.000000
899 13731 1 0.16500 119244.000000
900 11585 1 0.16500 119244.000000
900 12188 1 0.16500 119244.000000
901 11585 1 0.16500 119244.000000
901 15954 1 0.16500 119244.000000
902 12146 1 0.16500 119244.000000
902 12876 1 0.16500 119244.000000
903 12290 1 0.16500 119244.000000
903 12876 1 0.16500 119244.000000
904 11586 1 0.16500 119244.000000
904 12876 1 0.16500 119244.000000
905 12876 1 0.16500 119244.000000
905 14645 1 0.16500 119244.000000
906 12120 1 0.16500 119244.000000
906 14395 1 0.16500 119244.000000
907 11587 1 0.16500 119244.000000
907 15429 1 0.16500 119244.000000
908 11587 1 0.16500 119244.000000
908 15284 1 0.16500 119244.000000
909 11587 1 0.16500 119244.000000
909 14395 1 0.16500 119244.000000
910 11588 1 0.16500 119244.000000
910 15388 1 0.16500 119244.000000
911 11588 1 0.16500 119244.000000
911 12083 1 0.16500 119244.000000
912 11588 1 0.16500 119244.000000
912 16140 1 0.16500 119244.000000
913 11588 1 0.16500 119244.000000
913 16035 1 0.16500 119244.000000
914 11589 1 0.16500 119244.000000
914 15549 1 0.16500 119244.000000
915 11589 1 0.16500 119244.000000
915 13270 1 0.16500 119244.000000
916 11589 1 0.16500 119244.000000
916 15295 1 0.16500 119244.000000
917 11589 1 0.16500 119244.000000
917 14605 1 0.16500 119244.000000
918 11590 1 0.16500 119244.000000
918 12163 1 0.16500 119244.000000
919 11590 1 0.16500 119244.000000
919 15994 1 0.16500 119244.000000
920 11590 1 0.16500 119244.000000
920 16330 1 0.16500 119244.000000
921 11591 1 0.16500 119244.000000
921 15278 1 0.16500 119244.000000
922 11591 1 0.16500 119244.000000
922 13949 1 0.16500 119244.000000
923 11591 1 0.16500 119244.000000
923 12969 1 0.16500 119244.000000
924 11591 1 0.16500 119244.000000
924 11866 1 0.16500 119244.000000
925 11592 1 0.16500 119244.000000
925 11601 1 0.16500 119244.000000
926 11592 1 0.16500 119244.000000
926 13832 1 0.16500 119244.000000
927 11592 1 0.16500 119244.000000
927 11924 1 0.16500 119244.000000
928 11592 1 0.16500 119244.000000
928 16201 1 0.16500 119244.000000
929 11593 1 0.16500 119244.000000
929 15686 1 0.16500 119244.000000
930 11593 1 0.16500 119244.000000
930 15041 1 0.16500 119244.000000
931 11593 1 0.16500 119244.000000
931 13696 1 0.16500 119244.000000
932 11593 1 0.16500 119244.000000
932 15426 1 0.16500 119244.000000
933 11594 1 0.16500 119244.000000
933 13731 1 0.16500 119244.000000
934 11594 1 0.16500 119244.000000
934 16267 1 0.16500 119244.000000
935 11594 1 0.16500 119244.000000
935 13319 1 0.16500 119244.000000
936 11594 1 0.16500 119244.000000
936 14754 1 0.16500 119244.000000
937 11595 1 0.16500 119244.000000
937 15592 1 0.16500 119244.000000
938 11595 1 0.16500 119244.000000
938 16060 1 0.16500 119244.000000
939 11595 1 0.16500 119244.000000
939 13106 1 0.16500 119244.000000
940 11595 1 0.16500 119244.000000
940 20190 1 0.16500 119244.000000
941 11596 1 0.16500 119244.000000
941 11655 1 0.16500 119244.000000
942 11596 1 0.16500 119244.000000
942 15761 1 0.16500 119244.000000
943 11596 1 0.16500 119244.000000
943 16712 1 0.16500 119244.000000
944 11596 1 0.16500 119244.000000
944 14586 1 0.16500 119244.000000
945 11597 1 0.16500 119244.000000
945 15440 1 0.16500 119244.000000
946 11597 1 0.16500 119244.000000
946 11778 1 0.16500 119244.000000
947 11597 1 0.16500 119244.000000
947 16365 1 0.16500 119244.000000
948 11597 1 0.16500 119244.000000
948 16517 1 0.16500 119244.000000
949 11692 1 0.16500 119244.000000
949 14741 1 0.16500 119244.000000
950 11598 1 0.16500 119244.000000
950 12342 1 0.16500 119244.000000
951 11598 1 0.16500 119244.000000
951 14741 1 0.16500 119244.000000
952 11598 1 0.16500 119244.000000
952 13641 1 0.16500 119244.000000
953 11599 1 0.16500 119244.000000
953 11616 1 0.16500 119244.000000
954 11599 1 0.16500 119244.000000
954 13490 1 0.16500 119244.000000
955 11599 1 0.16500 119244.000000
955 12682 1 0.16500 119244.000000
956 11599 1 0.16500 119244.000000
956 15295 1 0.16500 119244.000000
957 11600 1 0.16500 119244.000000
957 11668 1 0.16500 119244.000000
958 11600 1 0.16500 119244.000000
958 12362 1 0.16500 119244.000000
959 11668 1 0.16500 119244.000000
959 13425 1 0.16500 119244.000000
960 12362 1 0.16500 119244.000000
960 12710 1 0.16500 119244.000000
961 11601 1 0.16500 119244.000000
961 15469 1 0.16500 119244.000000
962 11601 1 0.16500 119244.000000
962 14581 1 0.16500 119244.000000
963 11601 1 0.16500 119244.000000
963 14478 1 0.16500 119244.000000
964 16061 1 0.16500 119244.000000
964 18498 1 0.16500 119244.000000
965 13245 1 0.16500 119244.000000
965 18498 1 0.16500 119244.000000
966 11602 1 0.16500 119244.000000
966 12846 1 0.16500 119244.000000
967 11602 1 0.16500 119244.000000
967 14138 1 0.16500 119244.000000
968 11602 1 0.16500 119244.000000
968 14609 1 0.16500 119244.000000
969 11602 1 0.16500 119244.000000
969 16237 1 0.16500 119244.000000
970 11603 1 0.16500 119244.000000
970 15740 1 0.16500 119244.000000
971 11603 1 0.16500 119244.000000
971 11899 1 0.16500 119244.000000
972 11603 1 0.16500 119244.000000
972 12238 1 0.16500 119244.000000
973 11603 1 0.16500 119244.000000
973 11813 1 0.16500 119244.000000
974 11604 1 0.16500 119244.000000
974 14644 1 0.16500 119244.000000
975 11604 1 0.16500 119244.000000
975 14035 1 0.16500 119244.000000
976 11604 1 0.16500 119244.000000
976 15848 1 0.16500 119244.000000
977 11604 1 0.16500 119244.000000
977 14634 1 0.16500 119244.000000
978 11605 1 0.16500 119244.000000
978 16242 1 0.16500 119244.000000
979 11605 1 0.16500 119244.000000
979 15232 1 0.16500 119244.000000
980 11605 1 0.16500 119244.000000
980 20514 1 0.16500 119244.000000
981 11606 1 0.16500 119244.000000
981 14853 1 0.16500 119244.000000
982 12068 1 0.16500 119244.000000
982 14853 1 0.16500 119244.000000
983 11606 1 0.16500 119244.000000
983 12225 1 0.16500 119244.000000
984 11606 1 0.16500 119244.000000
984 11731 1 0.16500 119244.000000
985 11919 1 0.16500 119244.000000
985 18322 1 0.16500 119244.000000
986 11576 1 0.16500 119244.000000
986 19458 1 0.16500 119244.000000
987 11607 1 0.16500 119244.000000
987 12791 1 0.16500 119244.000000
988 11607 1 0.16500 119244.000000
988 15623 1 0.16500 119244.000000
989 11608 1 0.16500 119244.000000
989 16318 1 0.16500 119244.000000
990 11608 1 0.16500 119244.000000
990 16505 1 0.16500 119244.000000
991 11608 1 0.16500 119244.000000
991 15254 1 0.16500 119244.000000
992 11608 1 0.16500 119244.000000
992 11647 1 0.16500 119244.000000
993 11609 1 0.16500 119244.000000
993 13332 1 0.16500 119244.000000
994 11609 1 0.16500 119244.000000
994 16337 1 0.16500 119244.000000
995 11609 1 0.16500 119244.000000
995 11790 1 0.16500 119244.000000
996 11610 1 0.16500 119244.000000
996 16446 1 0.16500 119244.000000
997 11610 1 0.16500 119244.000000
997 16299 1 0.16500 119244.000000
998 11610 1 0.16500 119244.000000
998 15976 1 0.16500 119244.000000
999 11610 1 0.16500 119244.000000
999 12544 1 0.16500 119244.000000
1000 11611 1 0.16500 119244.000000
1000 13196 1 0.16500 119244.000000
1001 11611 1 0.16500 119244.000000
1001 16386 1 0.16500 119244.000000
1002 11611 1 0.16500 119244.000000
1002 16072 1 0.16500 119244.000000
1003 11611 1 0.16500 119244.000000
1003 15297 1 0.16500 119244.000000
1004 11612 1 0.16500 119244.000000
1004 12347 1 0.16500 119244.000000
1005 11612 1 0.16500 119244.000000
1005 12047 1 0.16500 119244.000000
1006 11612 1 0.16500 119244.000000
1006 14838 1 0.16500 119244.000000
1007 11612 1 0.16500 119244.000000
1007 14194 1 0.16500 119244.000000
1008 11613 1 0.16500 119244.000000
1008 11646 1 0.16500 119244.000000
1009 11613 1 0.16500 119244.000000
1009 15240 1 0.16500 119244.000000
1010 14913 1 0.16500 119244.000000
1010 15251 1 0.16500 119244.000000
1011 11613 1 0.16500 119244.000000
1011 14913 1 0.16500 119244.000000
1012 11614 1 0.16500 119244.000000
1012 14581 1 0.16500 119244.000000
1013 11614 1 0.16500 119244.000000
1013 15601 1 0.16500 119244.000000
1014 11614 1 0.16500 119244.000000
1014 16201 1 0.16500 119244.000000
1015 11614 1 0.16500 119244.000000
1015 12567 1 0.16500 119244.000000
1016 11615 1 0.16500 119244.000000
1016 11909 1 0.16500 119244.000000
1017 11615 1 0.16500 119244.000000
1017 15853 1 0.16500 119244.000000
1018 11615 1 0.16500 119244.000000
1018 13995 1 0.16500 119244.000000
1019 11615 1 0.16500 119244.000000
1019 12430 1 0.16500 119244.000000
1020 11616 1 0.16500 119244.000000
1020 13194 1 0.16500 119244.000000
1021 11616 1 0.16500 119244.000000
1021 21996 1 0.16500 119244.000000
1022 11616 1 0.16500 119244.000000
1022 18882 1 0.16500 119244.000000
1023 11617 1 0.16500 119244.000000
1023 15654 1 0.16500 119244.000000
1024 11617 1 0.16500 119244.000000
1024 16043 1 0.16500 119244.000000
1025 11617 1 0.16500 119244.000000
1025 13173 1 0.16500 119244.000000
1026 11617 1 0.16500 119244.000000
1026 16197 1 0.16500 119244.000000
1027 11618 1 0.16500 119244.000000
1027 12098 1 0.16500 119244.000000
1028 11618 1 0.16500 119244.000000
1028 12202 1 0.16500 119244.000000
1029 11618 1 0.16500 119244.000000
1029 15430 1 0.16500 119244.000000
1030 11586 1 0.16500 119244.000000
1030 11619 1 0.16500 119244.000000
1031 11619 1 0.16500 119244.000000
1031 15754 1 0.16500 119244.000000
1032 11619 1 0.16500 119244.000000
1032 14629 1 0.16500 119244.000000
1033 11619 1 0.16500 119244.000000
1033 15300 1 0.16500 119244.000000
1034 11620 1 0.16500 119244.000000
1034 17118 1 0.16500 119244.000000
1035 11620 1 0.16500 119244.000000
1035 14128 1 0.16500 119244.000000
1036 11812 1 0.16500 119244.000000
1036 15203 1 0.16500 119244.000000
1037 15203 1 0.16500 119244.000000
1037 22146 1 0.16500 119244.000000
1038 13080 1 0.16500 119244.000000
1038 15203 1 0.16500 119244.000000
1039 11621 1 0.16500 119244.000000
1039 15203 1 0.16500 119244.000000
1040 11622 1 0.16500 119244.000000
1040 15355 1 0.16500 119244.000000
1041 11622 1 0.16500 119244.000000
1041 15127 1 0.16500 119244.000000
1042 11622 1 0.16500 119244.000000
1042 11623 1 0.16500 119244.000000
1043 11623 1 0.16500 119244.000000
1043 14682 1 0.16500 119244.000000
1044 11623 1 0.16500 119244.000000
1044 18858 1 0.16500 119244.000000
1045 11624 1 0.16500 119244.000000
1045 15221 1 0.16500 119244.000000
1046 11624 1 0.16500 119244.000000
1046 15737 1 0.16500 119244.000000
1047 11624 1 0.16500 119244.000000
1047 11697 1 0.16500 119244.000000
1048 11624 1 0.16500 119244.000000
1048 15291 1 0.16500 119244.000000
1049 11625 1 0.16500 119244.000000
1049 15074 1 0.16500 119244.000000
1050 11625 1 0.16500 119244.000000
1050 15612 1 0.16500 119244.000000
1051 11625 1 0.16500 119244.000000
1051 14600 1 0.16500 119244.000000
1052 11626 1 0.16500 119244.000000
1052 11774 1 0.16500 119244.000000
1053 11626 1 0.16500 119244.000000
1053 15522 1 0.16500 119244.000000
1054 11626 1 0.16500 119244.000000
1054 15234 1 0.16500 119244.000000
1055 11626 1 0.16500 119244.000000
1055 12568 1 0.16500 119244.000000
1056 11627 1 0.16500 119244.000000
1056 11830 1 0.16500 119244.000000
1057 11627 1 0.16500 119244.000000
1057 15861 1 0.16500 119244.000000
1058 11627 1 0.16500 119244.000000
1058 14358 1 0.16500 119244.000000
1059 11627 1 0.16500 119244.000000
1059 15277 1 0.16500 119244.000000
1060 11628 1 0.16500 119244.000000
1060 15661 1 0.16500 119244.000000
1061 11628 1 0.16500 119244.000000
1061 15406 1 0.16500 119244.000000
1062 12892 1 0.16500 119244.000000
1062 15661 1 0.16500 119244.000000
1063 13226 1 0.16500 119244.000000
1063 13442 1 0.16500 119244.000000
1064 11629 1 0.16500 119244.000000
1064 13226 1 0.16500 119244.000000
1065 13226 1 0.16500 119244.000000
1065 14776 1 0.16500 119244.000000
1066 11630 1 0.16500 119244.000000
1066 13712 1 0.16500 119244.000000
1067 11630 1 0.16500 119244.000000
1067 14546 1 0.16500 119244.000000
1068 11630 1 0.16500 119244.000000
1068 14572 1 0.16500 119244.000000
1069 11630 1 0.16500 119244.000000
1069 12363 1 0.16500 119244.000000
1070 11631 1 0.16500 119244.000000
1070 15833 1 0.16500 119244.000000
1071 11631 1 0.16500 119244.000000
1071 16405 1 0.16500 119244.000000
1072 11631 1 0.16500 119244.000000
1072 14969 1 0.16500 119244.000000
1073 11632 1 0.16500 119244.000000
1073 11812 1 0.16500 119244.000000
1074 11632 1 0.16500 119244.000000
1074 16513 1 0.16500 119244.000000
1075 11632 1 0.16500 119244.000000
1075 21975 1 0.16500 119244.000000
1076 11632 1 0.16500 119244.000000
1076 14715 1 0.16500 119244.000000
1077 11633 1 0.16500 119244.000000
1077 13568 1 0.16500 119244.000000
1078 11633 1 0.16500 119244.000000
1078 13848 1 0.16500 119244.000000
1079 11633 1 0.16500 119244.000000
1079 16371 1 0.16500 119244.000000
1080 11633 1 0.16500 119244.000000
1080 15162 1 0.16500 119244.000000
1081 11634 1 0.16500 119244.000000
1081 15689 1 0.16500 119244.000000
1082 11634 1 0.16500 119244.000000
1082 12641 1 0.16500 119244.000000
1083 11634 1 0.16500 119244.000000
1083 16444 1 0.16500 119244.000000
1084 11634 1 0.16500 119244.000000
1084 14448 1 0.16500 119244.000000
1085 11635 1 0.16500 119244.000000
1085 13391 1 0.16500 119244.000000
1086 11635 1 0.16500 119244.000000
1086 12469 1 0.16500 119244.000000
1087 11635 1 0.16500 119244.000000
1087 14045 1 0.16500 119244.000000
1088 11635 1 0.16500 119244.000000
1088 13057 1 0.16500 119244.000000
1089 11636 1 0.16500 119244.000000
1089 14083 1 0.16500 119244.000000
1090 11636 1 0.16500 119244.000000
1090 14703 1 0.16500 119244.000000
1091 11636 1 0.16500 119244.000000
1091 13112 1 0.16500 119244.000000
1092 11636 1 0.16500 119244.000000
1092 16120 1 0.16500 119244.000000
1093 11637 1 0.16500 119244.000000
1093 13089 1 0.16500 119244.000000
1094 11637 1 0.16500 119244.000000
1094 14198 1 0.16500 119244.000000
1095 11637 1 0.16500 119244.000000
1095 16179 1 0.16500 119244.000000
1096 11638 1 0.16500 119244.000000
1096 14217 1 0.16500 119244.000000
1097 11638 1 0.16500 119244.000000
1097 13209 1 0.16500 119244.000000
1098 11638 1 0.16500 119244.000000
1098 14274 1 0.16500 119244.000000
1099 11638 1 0.16500 119244.000000
1099 12724 1 0.16500 119244.000000
1100 11639 1 0.16500 119244.000000
1100 13068 1 0.16500 119244.000000
1101 11639 1 0.16500 119244.000000
1101 13104 1 0.16500 119244.000000
1102 11639 1 0.16500 119244.000000
1102 15073 1 0.16500 119244.000000
1103 11639 1 0.16500 119244.000000
1103 16370 1 0.16500 119244.000000
1104 11640 1 0.16500 119244.000000
1104 15884 1 0.16500 119244.000000
1105 11640 1 0.16500 119244.000000
1105 14841 1 0.16500 119244.000000
1106 11640 1 0.16500 119244.000000
1106 16480 1 0.16500 119244.000000
1107 11641 1 0.16500 119244.000000
1107 12163 1 0.16500 119244.000000
1108 12163 1 0.16500 119244.000000
1108 16308 1 0.16500 119244.000000
1109 12163 1 0.16500 119244.000000
1109 13272 1 0.16500 119244.000000
1110 11642 1 0.16500 119244.000000
1110 21474 1 0.16500 119244.000000
1111 11642 1 0.16500 119244.000000
1111 13409 1 0.16500 119244.000000
1112 11642 1 0.16500 119244.000000
1112 22266 1 0.16500 119244.000000
1113 11643 1 0.16500 119244.000000
1113 16279 1 0.16500 119244.000000
1114 14457 1 0.16500 119244.000000
1114 16279 1 0.16500 119244.000000
1115 11643 1 0.16500 119244.000000
1115 15282 1 0.16500 119244.000000
1116 11643 1 0.16500 119244.000000
1116 11771 1 0.16500 119244.000000
1117 11644 1 0.16500 119244.000000
1117 13745 1 0.16500 119244.000000
1118 11644 1 0.16500 119244.000000
1118 12323 1 0.16500 119244.000000
1119 11644 1 0.16500 119244.000000
1119 15538 1 0.16500 119244.000000
1120 11644 1 0.16500 119244.000000
1120 22275 1 0.16500 119244.000000
1121 11645 1 0.16500 119244.000000
1121 13113 1 0.16500 119244.000000
1122 11645 1 0.16500 119244.000000
1122 15634 1 0.16500 119244.000000
1123 11645 1 0.16500 119244.000000
1123 19362 1 0.16500 119244.000000
1124 11645 1 0.16500 119244.000000
1124 15153 1 0.16500 119244.000000
1125 11646 1 0.16500 119244.000000
1125 15900 1 0.16500 119244.000000
1126 11646 1 0.16500 119244.000000
1126 15443 1 0.16500 119244.000000
1127 11646 1 0.16500 119244.000000
1127 16164 1 0.16500 119244.000000
1128 11647 1 0.16500 119244.000000
1128 11969 1 0.16500 119244.000000
1129 11647 1 0.16500 119244.000000
1129 12864 1 0.16500 119244.000000
1130 11648 1 0.16500 119244.000000
1130 15434 1 0.16500 119244.000000
1131 11491 1 0.16500 119244.000000
1131 15049 1 0.16500 119244.000000
1132 11648 1 0.16500 119244.000000
1132 15093 1 0.16500 119244.000000
1133 11649 1 0.16500 119244.000000
1133 13886 1 0.16500 119244.000000
1134 11649 1 0.16500 119244.000000
1134 12360 1 0.16500 119244.000000
1135 11649 1 0.16500 119244.000000
1135 13932 1 0.16500 119244.000000
1136 11649 1 0.16500 119244.000000
1136 13845 1 0.16500 119244.000000
1137 15747 1 0.16500 119244.000000
1137 21660 1 0.16500 119244.000000
1138 11650 1 0.16500 119244.000000
1138 15303 1 0.16500 119244.000000
1139 11650 1 0.16500 119244.000000
1139 12748 1 0.16500 119244.000000
1140 11650 1 0.16500 119244.000000
1140 15364 1 0.16500 119244.000000
1141 11650 1 0.16500 119244.000000
1141 11834 1 0.16500 119244.000000
1142 11651 1 0.16500 119244.000000
1142 12109 1 0.16500 119244.000000
1143 11651 1 0.16500 119244.000000
1143 11666 1 0.16500 119244.000000
1144 11651 1 0.16500 119244.000000
1144 13208 1 0.16500 119244.000000
1145 11651 1 0.16500 119244.000000
1145 13459 1 0.16500 119244.000000
1146 11652 1 0.16500 119244.000000
1146 16322 1 0.16500 119244.000000
1147 11652 1 0.16500 119244.000000
1147 12847 1 0.16500 119244.000000
1148 11652 1 0.16500 119244.000000
1148 20682 1 0.16500 119244.000000
1149 11652 1 0.16500 119244.000000
1149 15814 1 0.16500 119244.000000
1150 11653 1 0.16500 119244.000000
1150 13540 1 0.16500 119244.000000
1151 13540 1 0.16500 119244.000000
1151 13998 1 0.16500 119244.000000
1152 11653 1 0.16500 119244.000000
1152 12360 1 0.16500 119244.000000
1153 11654 1 0.16500 119244.000000
1153 16429 1 0.16500 119244.000000
1154 11654 1 0.16500 119244.000000
1154 20622 1 0.16500 119244.000000
1155 11654 1 0.16500 119244.000000
1155 14696 1 0.16500 119244.000000
1156 11654 1 0.16500 119244.000000
1156 14928 1 0.16500 119244.000000
1157 11655 1 0.16500 119244.000000
1157 16029 1 0.16500 119244.000000
1158 11655 1 0.16500 119244.000000
1158 11957 1 0.16500 119244.000000
1159 11655 1 0.16500 119244.000000
1159 14810 1 0.16500 119244.000000
1160 13046 1 0.16500 119244.000000
1160 15572 1 0.16500 119244.000000
1161 11656 1 0.16500 119244.000000
1161 12049 1 0.16500 119244.000000
1162 11656 1 0.16500 119244.000000
1162 13046 1 0.16500 119244.000000
1163 13046 1 0.16500 119244.000000
1163 13368 1 0.16500 119244.000000
1164 11657 1 0.16500 119244.000000
1164 14245 1 0.16500 119244.000000
1165 11657 1 0.16500 119244.000000
1165 16224 1 0.16500 119244.000000
1166 11657 1 0.16500 119244.000000
1166 13570 1 0.16500 119244.000000
1167 11657 1 0.16500 119244.000000
1167 13927 1 0.16500 119244.000000
1168 11658 1 0.16500 119244.000000
1168 16328 1 0.16500 119244.000000
1169 11658 1 0.16500 119244.000000
1169 14993 1 0.16500 119244.000000
1170 11658 1 0.16500 119244.000000
1170 12442 1 0.16500 119244.000000
1171 11658 1 0.16500 119244.000000
1171 21426 1 0.16500 119244.000000
1172 11659 1 0.16500 119244.000000
1172 13888 1 0.16500 119244.000000
1173 11659 1 0.16500 119244.000000
1173 14859 1 0.16500 119244.000000
1174 11659 1 0.16500 119244.000000
1174 12820 1 0.16500 119244.000000
1175 11659 1 0.16500 119244.000000
1175 14083 1 0.16500 119244.000000
1176 11660 1 0.16500 119244.000000
1176 15825 1 0.16500 119244.000000
1177 11660 1 0.16500 119244.000000
1177 14309 1 0.16500 119244.000000
1178 11660 1 0.16500 119244.000000
1178 15840 1 0.16500 119244.000000
1179 11661 1 0.16500 119244.000000
1179 15951 1 0.16500 119244.000000
1180 11661 1 0.16500 119244.000000
1180 17790 1 0.16500 119244.000000
1181 11662 1 0.16500 119244.000000
1181 15140 1 0.16500 119244.000000
1182 11662 1 0.16500 119244.000000
1182 14310 1 0.16500 119244.000000
1183 11662 1 0.16500 119244.000000
1183 15945 1 0.16500 119244.000000
1184 11662 1 0.16500 119244.000000
1184 15361 1 0.16500 119244.000000
1185 11663 1 0.16500 119244.000000
1185 13766 1 0.16500 119244.000000
1186 11663 1 0.16500 119244.000000
1186 12096 1 0.16500 119244.000000
1187 11663 1 0.16500 119244.000000
1187 11782 1 0.16500 119244.000000
1188 11663 1 0.16500 119244.000000
1188 16301 1 0.16500 119244.000000
1189 11664 1 0.16500 119244.000000
1189 13022 1 0.16500 119244.000000
1190 11664 1 0.16500 119244.000000
1190 16216 1 0.16500 119244.000000
1191 11664 1 0.16500 119244.000000
1191 14515 1 0.16500 119244.000000
1192 13022 1 0.16500 119244.000000
1192 14336 1 0.16500 119244.000000
1193 11665 1 0.16500 119244.000000
1193 13949 1 0.16500 119244.000000
1194 11665 1 0.16500 119244.000000
1194 13784 1 0.16500 119244.000000
1195 11665 1 0.16500 119244.000000
1195 11917 1 0.16500 119244.000000
1196 11665 1 0.16500 119244.000000
1196 12826 1 0.16500 119244.000000
1197 11398 1 0.16500 119244.000000
1197 11666 1 0.16500 119244.000000
1198 11666 1 0.16500 119244.000000
1198 16015 1 0.16500 119244.000000
1199 13541 1 0.16500 119244.000000
1199 14762 1 0.16500 119244.000000
1200 11667 1 0.16500 119244.000000
1200 14268 1 0.16500 119244.000000
1201 11667 1 0.16500 119244.000000
1201 13541 1 0.16500 119244.000000
1202 11667 1 0.16500 119244.000000
1202 14790 1 0.16500 119244.000000
1203 11600 1 0.16500 119244.000000
1203 12553 1 0.16500 119244.000000
1204 11668 1 0.16500 119244.000000
1204 12797 1 0.16500 119244.000000
1205 11668 1 0.16500 119244.000000
1205 12780 1 0.16500 119244.000000
1206 11669 1 0.16500 119244.000000
1206 12110 1 0.16500 119244.000000
1207 11669 1 0.16500 119244.000000
1207 17174 1 0.16500 119244.000000
1208 11670 1 0.16500 119244.000000
1208 14958 1 0.16500 119244.000000
1209 11670 1 0.16500 119244.000000
1209 13804 1 0.16500 119244.000000
1210 11670 1 0.16500 119244.000000
1210 13491 1 0.16500 119244.000000
1211 11671 1 0.16500 119244.000000
1211 13931 1 0.16500 119244.000000
1212 11420 1 0.16500 119244.000000
1212 11671 1 0.16500 119244.000000
1213 11671 1 0.16500 119244.000000
1213 15263 1 0.16500 119244.000000
1214 11671 1 0.16500 119244.000000
1214 12470 1 0.16500 119244.000000
1215 11672 1 0.16500 119244.000000
1215 16188 1 0.16500 119244.000000
1216 11672 1 0.16500 119244.000000
1216 12104 1 0.16500 119244.000000
1217 11672 1 0.16500 119244.000000
1217 14743 1 0.16500 119244.000000
1218 11672 1 0.16500 119244.000000
1218 11727 1 0.16500 119244.000000
1219 11673 1 0.16500 119244.000000
1219 14416 1 0.16500 119244.000000
1220 11584 1 0.16500 119244.000000
1220 15564 1 0.16500 119244.000000
1221 11673 1 0.16500 119244.000000
1221 15898 1 0.16500 119244.000000
1222 11674 1 0.16500 119244.000000
1222 22125 1 0.16500 119244.000000
1223 11674 1 0.16500 119244.000000
1223 12494 1 0.16500 119244.000000
1224 11674 1 0.16500 119244.000000
1224 22281 1 0.16500 119244.000000
1225 11675 1 0.16500 119244.000000
1225 11698 1 0.16500 119244.000000
1226 11675 1 0.16500 119244.000000
1226 15093 1 0.16500 119244.000000
1227 11675 1 0.16500 119244.000000
1227 16200 1 0.16500 119244.000000
1228 11675 1 0.16500 119244.000000
1228 13040 1 0.16500 119244.000000
1229 11676 1 0.16500 119244.000000
1229 13816 1 0.16500 119244.000000
1230 11676 1 0.16500 119244.000000
1230 16170 1 0.16500 119244.000000
1231 11676 1 0.16500 119244.000000
1231 22384 1 0.16500 119244.000000
1232 11676 1 0.16500 119244.000000
1232 13114 1 0.16500 119244.000000
1233 11677 1 0.16500 119244.000000
1233 14795 1 0.16500 119244.000000
1234 11677 1 0.16500 119244.000000
1234 15248 1 0.16500 119244.000000
1235 11677 1 0.16500 119244.000000
1235 13198 1 0.16500 119244.000000
1236 11677 1 0.16500 119244.000000
1236 14694 1 0.16500 119244.000000
1237 11678 1 0.16500 119244.000000
1237 21825 1 0.16500 119244.000000
1238 11678 1 0.16500 119244.000000
1238 15578 1 0.16500 119244.000000
1239 11678 1 0.16500 119244.000000
1239 13617 1 0.16500 119244.000000
1240 11679 1 0.16500 119244.000000
1240 14529 1 0.16500 119244.000000
1241 11679 1 0.16500 119244.000000
1241 13486 1 0.16500 119244.000000
1242 11679 1 0.16500 119244.000000
1242 12809 1 0.16500 119244.000000
1243 11680 1 0.16500 119244.000000
1243 15047 1 0.16500 119244.000000
1244 11680 1 0.16500 119244.000000
1244 15611 1 0.16500 119244.000000
1245 11680 1 0.16500 119244.000000
1245 15967 1 0.16500 119244.000000
1246 11681 1 0.16500 119244.000000
1246 13870 1 0.16500 119244.000000
1247 11681 1 0.16500 119244.000000
1247 11853 1 0.16500 119244.000000
1248 11681 1 0.16500 119244.000000
1248 15195 1 0.16500 119244.000000
1249 11681 1 0.16500 119244.000000
1249 14075 1 0.16500 119244.000000
1250 11682 1 0.16500 119244.000000
1250 15557 1 0.16500 119244.000000
1251 11682 1 0.16500 119244.000000
1251 12902 1 0.16500 119244.000000
1252 11682 1 0.16500 119244.000000
1252 12464 1 0.16500 119244.000000
1253 11682 1 0.16500 119244.000000
1253 14244 1 0.16500 119244.000000
1254 11683 1 0.16500 119244.000000
1254 14199 1 0.16500 119244.000000
1255 11683 1 0.16500 119244.000000
1255 14005 1 0.16500 119244.000000
1256 11683 1 0.16500 119244.000000
1256 11740 1 0.16500 119244.000000
1257 11683 1 0.16500 119244.000000
1257 16133 1 0.16500 119244.000000
1258 12801 1 0.16500 119244.000000
1258 18582 1 0.16500 119244.000000
1259 11684 1 0.16500 119244.000000
1259 18070 1 0.16500 119244.000000
1260 11684 1 0.16500 119244.000000
1260 22260 1 0.16500 119244.000000
1261 11684 1 0.16500 119244.000000
1261 13188 1 0.16500 119244.000000
1262 11684 1 0.16500 119244.000000
1262 16406 1 0.16500 119244.000000
1263 11685 1 0.16500 119244.000000
1263 16460 1 0.16500 119244.000000
1264 11685 1 0.16500 119244.000000
1264 15481 1 0.16500 119244.000000
1265 11685 1 0.16500 119244.000000
1265 12355 1 0.16500 119244.000000
1266 11686 1 0.16500 119244.000000
1266 13612 1 0.16500 119244.000000
1267 11686 1 0.16500 119244.000000
1267 15322 1 0.16500 119244.000000
1268 11686 1 0.16500 119244.000000
1268 13727 1 0.16500 119244.000000
1269 11686 1 0.16500 119244.000000
1269 21699 1 0.16500 119244.000000
1270 11687 1 0.16500 119244.000000
1270 14499 1 0.16500 119244.000000
1271 11687 1 0.16500 119244.000000
1271 16516 1 0.16500 119244.000000
1272 11687 1 0.16500 119244.000000
1272 13905 1 0.16500 119244.000000
1273 11687 1 0.16500 119244.000000
1273 12433 1 0.16500 119244.000000
1274 11688 1 0.16500 119244.000000
1274 16243 1 0.16500 119244.000000
1275 11688 1 0.16500 119244.000000
1275 13134 1 0.16500 119244.000000
1276 11688 1 0.16500 119244.000000
1276 13741 1 0.16500 119244.000000
1277 11688 1 0.16500 119244.000000
1277 13132 1 0.16500 119244.000000
1278 11689 1 0.16500 119244.000000
1278 12464 1 0.16500 119244.000000
1279 11689 1 0.16500 119244.000000
1279 12176 1 0.16500 119244.000000
1280 11689 1 0.16500 119244.000000
1280 14154 1 0.16500 119244.000000
1281 11689 1 0.16500 119244.000000
1281 15560 1 0.16500 119244.000000
1282 11690 1 0.16500 119244.000000
1282 14772 1 0.16500 119244.000000
1283 11690 1 0.16500 119244.000000
1283 14899 1 0.16500 119244.000000
1284 12261 1 0.16500 119244.000000
1284 16356 1 0.16500 119244.000000
1285 11690 1 0.16500 119244.000000
1285 16356 1 0.16500 119244.000000
1286 11691 1 0.16500 119244.000000
1286 14854 1 0.16500 119244.000000
1287 14854 1 0.16500 119244.000000
1287 16393 1 0.16500 119244.000000
1288 11691 1 0.16500 119244.000000
1288 20106 1 0.16500 119244.000000
1289 11692 1 0.16500 119244.000000
1289 13324 1 0.16500 119244.000000
1290 11692 1 0.16500 119244.000000
1290 14802 1 0.16500 119244.000000
1291 11692 1 0.16500 119244.000000
1291 21414 1 0.16500 119244.000000
1292 11693 1 0.16500 119244.000000
1292 15582 1 0.16500 119244.000000
1293 11693 1 0.16500 119244.000000
1293 15966 1 0.16500 119244.000000
1294 11693 1 0.16500 119244.000000
1294 15820 1 0.16500 119244.000000
1295 11693 1 0.16500 119244.000000
1295 16361 1 0.16500 119244.000000
1296 11694 1 0.16500 119244.000000
1296 15483 1 0.16500 119244.000000
1297 11694 1 0.16500 119244.000000
1297 15024 1 0.16500 119244.000000
1298 11694 1 0.16500 119244.000000
1298 12035 1 0.16500 119244.000000
1299 11695 1 0.16500 119244.000000
1299 11822 1 0.16500 119244.000000
1300 11695 1 0.16500 119244.000000
1300 15931 1 0.16500 119244.000000
1301 11695 1 0.16500 119244.000000
1301 12226 1 0.16500 119244.000000
1302 11695 1 0.16500 119244.000000
1302 12707 1 0.16500 119244.000000
1303 11696 1 0.16500 119244.000000
1303 15126 1 0.16500 119244.000000
1304 14268 1 0.16500 119244.000000
1304 15989 1 0.16500 119244.000000
1305 11696 1 0.16500 119244.000000
1305 14268 1 0.16500 119244.000000
1306 11696 1 0.16500 119244.000000
1306 15887 1 0.16500 119244.000000
1307 11697 1 0.16500 119244.000000
1307 14625 1 0.16500 119244.000000
1308 11697 1 0.16500 119244.000000
1308 11761 1 0.16500 119244.000000
1309 11697 1 0.16500 119244.000000
1309 12811 1 0.16500 119244.000000
1310 11698 1 0.16500 119244.000000
1310 16033 1 0.16500 119244.000000
1311 11698 1 0.16500 119244.000000
1311 14388 1 0.16500 119244.000000
1312 11621 1 0.16500 119244.000000
1312 11698 1 0.16500 119244.000000
1313 11699 1 0.16500 119244.000000
1313 12036 1 0.16500 119244.000000
1314 11699 1 0.16500 119244.000000
1314 16279 1 0.16500 119244.000000
1315 11699 1 0.16500 119244.000000
1315 13351 1 0.16500 119244.000000
1316 11699 1 0.16500 119244.000000
1316 12171 1 0.16500 119244.000000
1317 11700 1 0.16500 119244.000000
1317 12829 1 0.16500 119244.000000
1318 11700 1 0.16500 119244.000000
1318 14548 1 0.16500 119244.000000
1319 11700 1 0.16500 119244.000000
1319 16200 1 0.16500 119244.000000
1320 11700 1 0.16500 119244.000000
1320 14388 1 0.16500 119244.000000
1321 11701 1 0.16500 119244.000000
1321 14499 1 0.16500 119244.000000
1322 11701 1 0.16500 119244.000000
1322 14516 1 0.16500 119244.000000
1323 11701 1 0.16500 119244.000000
1323 16027 1 0.16500 119244.000000
1324 11701 1 0.16500 119244.000000
1324 12005 1 0.16500 119244.000000
1325 11702 1 0.16500 119244.000000
1325 12025 1 0.16500 119244.000000
1326 11702 1 0.16500 119244.000000
1326 14709 1 0.16500 119244.000000
1327 11702 1 0.16500 119244.000000
1327 18056 1 0.16500 119244.000000
1328 11702 1 0.16500 119244.000000
1328 14292 1 0.16500 119244.000000
1329 11703 1 0.16500 119244.000000
1329 20382 1 0.16500 119244.000000
1330 20382 1 0.16500 119244.000000
1330 21888 1 0.16500 119244.000000
1331 11703 1 0.16500 119244.000000
1331 12457 1 0.16500 119244.000000
1332 11704 1 0.16500 119244.000000
1332 15409 1 0.16500 119244.000000
1333 11704 1 0.16500 119244.000000
1333 15137 1 0.16500 119244.000000
1334 11704 1 0.16500 119244.000000
1334 14341 1 0.16500 119244.000000
1335 11704 1 0.16500 119244.000000
1335 13727 1 0.16500 119244.000000
1336 11705 1 0.16500 119244.000000
1336 14017 1 0.16500 119244.000000
1337 11705 1 0.16500 119244.000000
1337 15477 1 0.16500 119244.000000
1338 11705 1 0.16500 119244.000000
1338 12548 1 0.16500 119244.000000
1339 11705 1 0.16500 119244.000000
1339 14233 1 0.16500 119244.000000
1340 11706 1 0.16500 119244.000000
1340 15757 1 0.16500 119244.000000
1341 11706 1 0.16500 119244.000000
1341 13627 1 0.16500 119244.000000
1342 11706 1 0.16500 119244.000000
1342 16027 1 0.16500 119244.000000
1343 11707 1 0.16500 119244.000000
1343 11887 1 0.16500 119244.000000
1344 11707 1 0.16500 119244.000000
1344 11800 1 0.16500 119244.000000
1345 11708 1 0.16500 119244.000000
1345 12424 1 0.16500 119244.000000
1346 11708 1 0.16500 119244.000000
1346 11915 1 0.16500 119244.000000
1347 11708 1 0.16500 119244.000000
1347 14281 1 0.16500 119244.000000
1348 11708 1 0.16500 119244.000000
1348 16245 1 0.16500 119244.000000
1349 13519 1 0.16500 119244.000000
1349 15636 1 0.16500 119244.000000
1350 13519 1 0.16500 119244.000000
1350 15348 1 0.16500 119244.000000
1351 11709 1 0.16500 119244.000000
1351 13519 1 0.16500 119244.000000
1352 15241 1 0.16500 119244.000000
1352 15348 1 0.16500 119244.000000
1353 11710 1 0.16500 119244.000000
1353 14093 1 0.16500 119244.000000
1354 15091 1 0.16500 119244.000000
1354 15183 1 0.16500 119244.000000
1355 11710 1 0.16500 119244.000000
1355 16223 1 0.16500 119244.000000
1356 11710 1 0.16500 119244.000000
1356 15091 1 0.16500 119244.000000
1357 12212 1 0.16500 119244.000000
1357 15827 1 0.16500 119244.000000
1358 11711 1 0.16500 119244.000000
1358 15347 1 0.16500 119244.000000
1359 12212 1 0.16500 119244.000000
1359 14426 1 0.16500 119244.000000
1360 11711 1 0.16500 119244.000000
1360 12212 1 0.16500 119244.000000
1361 11712 1 0.16500 119244.000000
1361 16267 1 0.16500 119244.000000
1362 11712 1 0.16500 119244.000000
1362 15813 1 0.16500 119244.000000
1363 11712 1 0.16500 119244.000000
1363 13779 1 0.16500 119244.000000
1364 11712 1 0.16500 119244.000000
1364 11865 1 0.16500 119244.000000
1365 11713 1 0.16500 119244.000000
1365 14016 1 0.16500 119244.000000
1366 11713 1 0.16500 119244.000000
1366 12180 1 0.16500 119244.000000
1367 11713 1 0.16500 119244.000000
1367 14959 1 0.16500 119244.000000
1368 11713 1 0.16500 119244.000000
1368 13661 1 0.16500 119244.000000
1369 11714 1 0.16500 119244.000000
1369 20814 1 0.16500 119244.000000
1370 11714 1 0.16500 119244.000000
1370 14732 1 0.16500 119244.000000
1371 11714 1 0.16500 119244.000000
1371 14069 1 0.16500 119244.000000
1372 11714 1 0.16500 119244.000000
1372 18678 1 0.16500 119244.000000
1373 11715 1 0.16500 119244.000000
1373 12147 1 0.16500 119244.000000
1374 11715 1 0.16500 119244.000000
1374 13632 1 0.16500 119244.000000
1375 11715 1 0.16500 119244.000000
1375 15272 1 0.16500 119244.000000
1376 11716 1 0.16500 119244.000000
1376 12840 1 0.16500 119244.000000
1377 11716 1 0.16500 119244.000000
1377 15572 1 0.16500 119244.000000
1378 11716 1 0.16500 119244.000000
1378 14337 1 0.16500 119244.000000
1379 11716 1 0.16500 119244.000000
1379 12461 1 0.16500 119244.000000
1380 11717 1 0.16500 119244.000000
1380 14596 1 0.16500 119244.000000
1381 11717 1 0.16500 119244.000000
1381 18810 1 0.16500 119244.000000
1382 11717 1 0.16500 119244.000000
1382 17986 1 0.16500 119244.000000
1383 11718 1 0.16500 119244.000000
1383 14955 1 0.16500 119244.000000
1384 11718 1 0.16500 119244.000000
1384 16167 1 0.16500 119244.000000
1385 11718 1 0.16500 119244.000000
1385 15542 1 0.16500 119244.000000
1386 11718 1 0.16500 119244.000000
1386 14730 1 0.16500 119244.000000
1387 11719 1 0.16500 119244.000000
1387 20346 1 0.16500 119244.000000
1388 11719 1 0.16500 119244.000000
1388 14643 1 0.16500 119244.000000
1389 11719 1 0.16500 119244.000000
1389 15707 1 0.16500 119244.000000
1390 11720 1 0.16500 119244.000000
1390 15077 1 0.16500 119244.000000
1391 11720 1 0.16500 119244.000000
1391 13350 1 0.16500 119244.000000
1392 11720 1 0.16500 119244.000000
1392 13242 1 0.16500 119244.000000
1393 11720 1 0.16500 119244.000000
1393 12618 1 0.16500 119244.000000
1394 11721 1 0.16500 119244.000000
1394 15182 1 0.16500 119244.000000
1395 11721 1 0.16500 119244.000000
1395 13604 1 0.16500 119244.000000
1396 11721 1 0.16500 119244.000000
1396 12342 1 0.16500 119244.000000
1397 11721 1 0.16500 119244.000000
1397 14802 1 0.16500 119244.000000
1398 11722 1 0.16500 119244.000000
1398 14124 1 0.16500 119244.000000
1399 11722 1 0.16500 119244.000000
1399 12951 1 0.16500 119244.000000
1400 11722 1 0.16500 119244.000000
1400 14444 1 0.16500 119244.000000
1401 11722 1 0.16500 119244.000000
1401 13652 1 0.16500 119244.000000
1402 11723 1 0.16500 119244.000000
1402 14973 1 0.16500 119244.000000
1403 14032 1 0.16500 119244.000000
1403 15986 1 0.16500 119244.000000
1404 11723 1 0.16500 119244.000000
1404 13634 1 0.16500 119244.000000
1405 11723 1 0.16500 119244.000000
1405 14032 1 0.16500 119244.000000
1406 11724 1 0.16500 119244.000000
1406 12249 1 0.16500 119244.000000
1407 11724 1 0.16500 119244.000000
1407 22272 1 0.16500 119244.000000
1408 11724 1 0.16500 119244.000000
1408 15368 1 0.16500 119244.000000
1409 12229 1 0.16500 119244.000000
1409 15048 1 0.16500 119244.000000
1410 11725 1 0.16500 119244.000000
1410 15048 1 0.16500 119244.000000
1411 11725 1 0.16500 119244.000000
1411 15651 1 0.16500 119244.000000
1412 11725 1 0.16500 119244.000000
1412 15179 1 0.16500 119244.000000
1413 11726 1 0.16500 119244.000000
1413 14613 1 0.16500 119244.000000
1414 11726 1 0.16500 119244.000000
1414 20274 1 0.16500 119244.000000
1415 11727 1 0.16500 119244.000000
1415 16272 1 0.16500 119244.000000
1416 11727 1 0.16500 119244.000000
1416 11860 1 0.16500 119244.000000
1417 11727 1 0.16500 119244.000000
1417 14698 1 0.16500 119244.000000
1418 11728 1 0.16500 119244.000000
1418 15308 1 0.16500 119244.000000
1419 11728 1 0.16500 119244.000000
1419 15865 1 0.16500 119244.000000
1420 11728 1 0.16500 119244.000000
1420 13174 1 0.16500 119244.000000
1421 11728 1 0.16500 119244.000000
1421 13195 1 0.16500 119244.000000
1422 11729 1 0.16500 119244.000000
1422 13637 1 0.16500 119244.000000
1423 11729 1 0.16500 119244.000000
1423 12413 1 0.16500 119244.000000
1424 11729 1 0.16500 119244.000000
1424 12679 1 0.16500 119244.000000
1425 11729 1 0.16500 119244.000000
1425 15480 1 0.16500 119244.000000
1426 11730 1 0.16500 119244.000000
1426 12914 1 0.16500 119244.000000
1427 11730 1 0.16500 119244.000000
1427 12906 1 0.16500 119244.000000
1428 11730 1 0.16500 119244.000000
1428 16483 1 0.16500 119244.000000
1429 11730 1 0.16500 119244.000000
1429 14527 1 0.16500 119244.000000
1430 11731 1 0.16500 119244.000000
1430 15111 1 0.16500 119244.000000
1431 11731 1 0.16500 119244.000000
1431 14088 1 0.16500 119244.000000
1432 11731 1 0.16500 119244.000000
1432 15122 1 0.16500 119244.000000
1433 11732 1 0.16500 119244.000000
1433 13234 1 0.16500 119244.000000
1434 11732 1 0.16500 119244.000000
1434 12043 1 0.16500 119244.000000
1435 11732 1 0.16500 119244.000000
1435 15239 1 0.16500 119244.000000
1436 11733 1 0.16500 119244.000000
1436 15799 1 0.16500 119244.000000
1437 11733 1 0.16500 119244.000000
1437 13695 1 0.16500 119244.000000
1438 11733 1 0.16500 119244.000000
1438 15608 1 0.16500 119244.000000
1439 11733 1 0.16500 119244.000000
1439 12273 1 0.16500 119244.000000
1440 11734 1 0.16500 119244.000000
1440 13886 1 0.16500 119244.000000
1441 11734 1 0.16500 119244.000000
1441 14960 1 0.16500 119244.000000
1442 11734 1 0.16500 119244.000000
1442 16234 1 0.16500 119244.000000
1443 11735 1 0.16500 119244.000000
1443 15820 1 0.16500 119244.000000
1444 11735 1 0.16500 119244.000000
1444 22230 1 0.16500 119244.000000
1445 11736 1 0.16500 119244.000000
1445 14342 1 0.16500 119244.000000
1446 11736 1 0.16500 119244.000000
1446 16268 1 0.16500 119244.000000
1447 11736 1 0.16500 119244.000000
1447 16520 1 0.16500 119244.000000
1448 11736 1 0.16500 119244.000000
1448 12925 1 0.16500 119244.000000
1449 11737 1 0.16500 119244.000000
1449 16362 1 0.16500 119244.000000
1450 11737 1 0.16500 119244.000000
1450 13286 1 0.16500 119244.000000
1451 11738 1 0.16500 119244.000000
1451 12695 1 0.16500 119244.000000
1452 11738 1 0.16500 119244.000000
1452 15809 1 0.16500 119244.000000
1453 11738 1 0.16500 119244.000000
1453 14537 1 0.16500 119244.000000
1454 11739 1 0.16500 119244.000000
1454 14422 1 0.16500 119244.000000
1455 11739 1 0.16500 119244.000000
1455 21402 1 0.16500 119244.000000
1456 11739 1 0.16500 119244.000000
1456 15477 1 0.16500 119244.000000
1457 11740 1 0.16500 119244.000000
1457 13771 1 0.16500 119244.000000
1458 11740 1 0.16500 119244.000000
1458 16331 1 0.16500 119244.000000
1459 11740 1 0.16500 119244.000000
1459 16245 1 0.16500 119244.000000
1460 12513 1 0.16500 119244.000000
1460 15180 1 0.16500 119244.000000
1461 11741 1 0.16500 119244.000000
1461 14927 1 0.16500 119244.000000
1462 11741 1 0.16500 119244.000000
1462 15805 1 0.16500 119244.000000
1463 13884 1 0.16500 119244.000000
1463 15061 1 0.16500 119244.000000
1464 11742 1 0.16500 119244.000000
1464 14616 1 0.16500 119244.000000
1465 11742 1 0.16500 119244.000000
1465 14258 1 0.16500 119244.000000
1466 11742 1 0.16500 119244.000000
1466 14294 1 0.16500 119244.000000
1467 11742 1 0.16500 119244.000000
1467 15065 1 0.16500 119244.000000
1468 12126 1 0.16500 119244.000000
1468 16029 1 0.16500 119244.000000
1469 12466 1 0.16500 119244.000000
1469 14157 1 0.16500 119244.000000
1470 11743 1 0.16500 119244.000000
1470 12126 1 0.16500 119244.000000
1471 11743 1 0.16500 119244.000000
1471 12466 1 0.16500 119244.000000
1472 11744 1 0.16500 119244.000000
1472 12273 1 0.16500 119244.000000
1473 11744 1 0.16500 119244.000000
1473 13351 1 0.16500 119244.000000
1474 11744 1 0.16500 119244.000000
1474 12639 1 0.16500 119244.000000
1475 11744 1 0.16500 119244.000000
1475 13130 1 0.16500 119244.000000
1476 11745 1 0.16500 119244.000000
1476 21516 1 0.16500 119244.000000
1477 11745 1 0.16500 119244.000000
1477 14393 1 0.16500 119244.000000
1478 11746 1 0.16500 119244.000000
1478 14976 1 0.16500 119244.000000
1479 11746 1 0.16500 119244.000000
1479 15841 1 0.16500 119244.000000
1480 11746 1 0.16500 119244.000000
1480 15216 1 0.16500 119244.000000
1481 11746 1 0.16500 119244.000000
1481 17594 1 0.16500 119244.000000
1482 11747 1 0.16500 119244.000000
1482 14202 1 0.16500 119244.000000
1483 11747 1 0.16500 119244.000000
1483 15434 1 0.16500 119244.000000
1484 11747 1 0.16500 119244.000000
1484 12172 1 0.16500 119244.000000
1485 11747 1 0.16500 119244.000000
1485 15829 1 0.16500 119244.000000
1486 11748 1 0.16500 119244.000000
1486 14156 1 0.16500 119244.000000
1487 11748 1 0.16500 119244.000000
1487 15413 1 0.16500 119244.000000
1488 11748 1 0.16500 119244.000000
1488 15941 1 0.16500 119244.000000
1489 11748 1 0.16500 119244.000000
1489 14964 1 0.16500 119244.000000
1490 11749 1 0.16500 119244.000000
1490 13515 1 0.16500 119244.000000
1491 11749 1 0.16500 119244.000000
1491 13813 1 0.16500 119244.000000
1492 11749 1 0.16500 119244.000000
1492 12217 1 0.16500 119244.000000
1493 11749 1 0.16500 119244.000000
1493 14838 1 0.16500 119244.000000
1494 11750 1 0.16500 119244.000000
1494 12093 1 0.16500 119244.000000
1495 11750 1 0.16500 119244.000000
1495 21318 1 0.16500 119244.000000
1496 11750 1 0.16500 119244.000000
1496 12957 1 0.16500 119244.000000
1497 11750 1 0.16500 119244.000000
1497 12804 1 0.16500 119244.000000
1498 11751 1 0.16500 119244.000000
1498 15728 1 0.16500 119244.000000
1499 12316 1 0.16500 119244.000000
1499 13660 1 0.16500 119244.000000
1500 11751 1 0.16500 119244.000000
1500 12316 1 0.16500 119244.000000
1501 11751 1 0.16500 119244.000000
1501 11947 1 0.16500 119244.000000
1502 11752 1 0.16500 119244.000000
1502 12245 1 0.16500 119244.000000
1503 11752 1 0.16500 119244.000000
1503 12892 1 0.16500 119244.000000
1504 11752 1 0.16500 119244.000000
1504 14911 1 0.16500 119244.000000
1505 11752 1 0.16500 119244.000000
1505 14351 1 0.16500 119244.000000
1506 11753 1 0.16500 119244.000000
1506 14109 1 0.16500 119244.000000
1507 11753 1 0.16500 119244.000000
1507 13705 1 0.16500 119244.000000
1508 11753 1 0.16500 119244.000000
1508 14918 1 0.16500 119244.000000
1509 11753 1 0.16500 119244.000000
1509 16050 1 0.16500 119244.000000
1510 11754 1 0.16500 119244.000000
1510 13745 1 0.16500 119244.000000
1511 11754 1 0.16500 119244.000000
1511 14469 1 0.16500 119244.000000
1512 11754 1 0.16500 119244.000000
1512 15405 1 0.16500 119244.000000
1513 11754 1 0.16500 119244.000000
1513 15353 1 0.16500 119244.000000
1514 11755 1 0.16500 119244.000000
1514 12918 1 0.16500 119244.000000
1515 11755 1 0.16500 119244.000000
1515 15112 1 0.16500 119244.000000
1516 11755 1 0.16500 119244.000000
1516 14784 1 0.16500 119244.000000
1517 11755 1 0.16500 119244.000000
1517 14764 1 0.16500 119244.000000
1518 11756 1 0.16500 119244.000000
1518 14262 1 0.16500 119244.000000
1519 11756 1 0.16500 119244.000000
1519 14320 1 0.16500 119244.000000
1520 11756 1 0.16500 119244.000000
1520 12071 1 0.16500 119244.000000
1521 11756 1 0.16500 119244.000000
1521 16031 1 0.16500 119244.000000
1522 11757 1 0.16500 119244.000000
1522 14378 1 0.16500 119244.000000
1523 11757 1 0.16500 119244.000000
1523 14574 1 0.16500 119244.000000
1524 11757 1 0.16500 119244.000000
1524 13845 1 0.16500 119244.000000
1525 11757 1 0.16500 119244.000000
1525 15339 1 0.16500 119244.000000
1526 11758 1 0.16500 119244.000000
1526 20214 1 0.16500 119244.000000
1527 11758 1 0.16500 119244.000000
1527 14572 1 0.16500 119244.000000
1528 11758 1 0.16500 119244.000000
1528 15905 1 0.16500 119244.000000
1529 11758 1 0.16500 119244.000000
1529 13808 1 0.16500 119244.000000
1530 11759 1 0.16500 119244.000000
1530 15463 1 0.16500 119244.000000
1531 11759 1 0.16500 119244.000000
1531 16171 1 0.16500 119244.000000
1532 11759 1 0.16500 119244.000000
1532 14451 1 0.16500 119244.000000
1533 11759 1 0.16500 119244.000000
1533 13910 1 0.16500 119244.000000
1534 11760 1 0.16500 119244.000000
1534 14645 1 0.16500 119244.000000
1535 11760 1 0.16500 119244.000000
1535 14868 1 0.16500 119244.000000
1536 11760 1 0.16500 119244.000000
1536 14916 1 0.16500 119244.000000
1537 11760 1 0.16500 119244.000000
1537 15389 1 0.16500 119244.000000
1538 11761 1 0.16500 119244.000000
1538 16302 1 0.16500 119244.000000
1539 11761 1 0.16500 119244.000000
1539 12951 1 0.16500 119244.000000
1540 11761 1 0.16500 119244.000000
1540 14543 1 0.16500 119244.000000
1541 11762 1 0.16500 119244.000000
1541 13497 1 0.16500 119244.000000
1542 11762 1 0.16500 119244.000000
1542 14599 1 0.16500 119244.000000
1543 11763 1 0.16500 119244.000000
1543 16354 1 0.16500 119244.000000
1544 11763 1 0.16500 119244.000000
1544 12515 1 0.16500 119244.000000
1545 11763 1 0.16500 119244.000000
1545 14064 1 0.16500 119244.000000
1546 11763 1 0.16500 119244.000000
1546 13699 1 0.16500 119244.000000
1547 11764 1 0.16500 119244.000000
1547 12418 1 0.16500 119244.000000
1548 11764 1 0.16500 119244.000000
1548 11964 1 0.16500 119244.000000
1549 11764 1 0.16500 119244.000000
1549 15069 1 0.16500 119244.000000
1550 11764 1 0.16500 119244.000000
1550 13677 1 0.16500 119244.000000
1551 11765 1 0.16500 119244.000000
1551 14992 1 0.16500 119244.000000
1552 11765 1 0.16500 119244.000000
1552 13735 1 0.16500 119244.000000
1553 11765 1 0.16500 119244.000000
1553 15337 1 0.16500 119244.000000
1554 11765 1 0.16500 119244.000000
1554 14694 1 0.16500 119244.000000
1555 11766 1 0.16500 119244.000000
1555 12321 1 0.16500 119244.000000
1556 11766 1 0.16500 119244.000000
1556 13986 1 0.16500 119244.000000
1557 11766 1 0.16500 119244.000000
1557 14559 1 0.16500 119244.000000
1558 11766 1 0.16500 119244.000000
1558 14762 1 0.16500 119244.000000
1559 11767 1 0.16500 119244.000000
1559 15143 1 0.16500 119244.000000
1560 11767 1 0.16500 119244.000000
1560 15043 1 0.16500 119244.000000
1561 11767 1 0.16500 119244.000000
1561 15476 1 0.16500 119244.000000
1562 11767 1 0.16500 119244.000000
1562 16248 1 0.16500 119244.000000
1563 11768 1 0.16500 119244.000000
1563 14303 1 0.16500 119244.000000
1564 11768 1 0.16500 119244.000000
1564 14013 1 0.16500 119244.000000
1565 11768 1 0.16500 119244.000000
1565 12285 1 0.16500 119244.000000
1566 11768 1 0.16500 119244.000000
1566 18750 1 0.16500 119244.000000
1567 11769 1 0.16500 119244.000000
1567 11835 1 0.16500 119244.000000
1568 12421 1 0.16500 119244.000000
1568 16071 1 0.16500 119244.000000
1569 11769 1 0.16500 119244.000000
1569 12421 1 0.16500 119244.000000
1570 11769 1 0.16500 119244.000000
1570 13710 1 0.16500 119244.000000
1571 11770 1 0.16500 119244.000000
1571 12272 1 0.16500 119244.000000
1572 11770 1 0.16500 119244.000000
1572 15889 1 0.16500 119244.000000
1573 11770 1 0.16500 119244.000000
1573 15677 1 0.16500 119244.000000
1574 11770 1 0.16500 119244.000000
1574 12250 1 0.16500 119244.000000
1575 11771 1 0.16500 119244.000000
1575 15828 1 0.16500 119244.000000
1576 11996 1 0.16500 119244.000000
1576 15828 1 0.16500 119244.000000
1577 11771 1 0.16500 119244.000000
1577 16133 1 0.16500 119244.000000
1578 11771 1 0.16500 119244.000000
1578 14664 1 0.16500 119244.000000
1579 11772 1 0.16500 119244.000000
1579 13544 1 0.16500 119244.000000
1580 11772 1 0.16500 119244.000000
1580 14788 1 0.16500 119244.000000
1581 11772 1 0.16500 119244.000000
1581 13009 1 0.16500 119244.000000
1582 11772 1 0.16500 119244.000000
1582 14510 1 0.16500 119244.000000
1583 11773 1 0.16500 119244.000000
1583 12144 1 0.16500 119244.000000
1584 11773 1 0.16500 119244.000000
1584 13049 1 0.16500 119244.000000
1585 11773 1 0.16500 119244.000000
1585 13615 1 0.16500 119244.000000
1586 11774 1 0.16500 119244.000000
1586 12469 1 0.16500 119244.000000
1587 11774 1 0.16500 119244.000000
1587 16418 1 0.16500 119244.000000
1588 12385 1 0.16500 119244.000000
1588 16418 1 0.16500 119244.000000
1589 11775 1 0.16500 119244.000000
1589 15599 1 0.16500 119244.000000
1590 11775 1 0.16500 119244.000000
1590 13723 1 0.16500 119244.000000
1591 11775 1 0.16500 119244.000000
1591 15452 1 0.16500 119244.000000
1592 11775 1 0.16500 119244.000000
1592 15551 1 0.16500 119244.000000
1593 11776 1 0.16500 119244.000000
1593 15761 1 0.16500 119244.000000
1594 11776 1 0.16500 119244.000000
1594 13219 1 0.16500 119244.000000
1595 11776 1 0.16500 119244.000000
1595 14921 1 0.16500 119244.000000
1596 11777 1 0.16500 119244.000000
1596 16327 1 0.16500 119244.000000
1597 11488 1 0.16500 119244.000000
1597 11777 1 0.16500 119244.000000
1598 11777 1 0.16500 119244.000000
1598 15383 1 0.16500 119244.000000
1599 11778 1 0.16500 119244.000000
1599 14092 1 0.16500 119244.000000
1600 11778 1 0.16500 119244.000000
1600 13846 1 0.16500 119244.000000
1601 11778 1 0.16500 119244.000000
1601 11826 1 0.16500 119244.000000
1602 11779 1 0.16500 119244.000000
1602 12208 1 0.16500 119244.000000
1603 11779 1 0.16500 119244.000000
1603 13271 1 0.16500 119244.000000
1604 11779 1 0.16500 119244.000000
1604 13769 1 0.16500 119244.000000
1605 11780 1 0.16500 119244.000000
1605 13199 1 0.16500 119244.000000
1606 11780 1 0.16500 119244.000000
1606 14197 1 0.16500 119244.000000
1607 11780 1 0.16500 119244.000000
1607 14465 1 0.16500 119244.000000
1608 11780 1 0.16500 119244.000000
1608 12390 1 0.16500 119244.000000
1609 11781 1 0.16500 119244.000000
1609 13709 1 0.16500 119244.000000
1610 11781 1 0.16500 119244.000000
1610 14217 1 0.16500 119244.000000
1611 11781 1 0.16500 119244.000000
1611 12908 1 0.16500 119244.000000
1612 13709 1 0.16500 119244.000000
1612 15643 1 0.16500 119244.000000
1613 11782 1 0.16500 119244.000000
1613 12843 1 0.16500 119244.000000
1614 11782 1 0.16500 119244.000000
1614 16018 1 0.16500 119244.000000
1615 11782 1 0.16500 119244.000000
1615 16103 1 0.16500 119244.000000
1616 11783 1 0.16500 119244.000000
1616 12654 1 0.16500 119244.000000
1617 11783 1 0.16500 119244.000000
1617 12854 1 0.16500 119244.000000
1618 11783 1 0.16500 119244.000000
1618 13862 1 0.16500 119244.000000
1619 11797 1 0.16500 119244.000000
1619 13707 1 0.16500 119244.000000
1620 11784 1 0.16500 119244.000000
1620 13707 1 0.16500 119244.000000
1621 11784 1 0.16500 119244.000000
1621 14339 1 0.16500 119244.000000
1622 11784 1 0.16500 119244.000000
1622 14710 1 0.16500 119244.000000
1623 18510 1 0.16500 119244.000000
1623 22242 1 0.16500 119244.000000
1624 13034 1 0.16500 119244.000000
1624 18510 1 0.16500 119244.000000
1625 11922 1 0.16500 119244.000000
1625 18510 1 0.16500 119244.000000
1626 11785 1 0.16500 119244.000000
1626 13946 1 0.16500 119244.000000
1627 11785 1 0.16500 119244.000000
1627 12375 1 0.16500 119244.000000
1628 11785 1 0.16500 119244.000000
1628 13699 1 0.16500 119244.000000
1629 11785 1 0.16500 119244.000000
1629 14650 1 0.16500 119244.000000
1630 11786 1 0.16500 119244.000000
1630 15751 1 0.16500 119244.000000
1631 11786 1 0.16500 119244.000000
1631 16208 1 0.16500 119244.000000
1632 11786 1 0.16500 119244.000000
1632 15835 1 0.16500 119244.000000
1633 13311 1 0.16500 119244.000000
1633 16208 1 0.16500 119244.000000
1634 11787 1 0.16500 119244.000000
1634 21957 1 0.16500 119244.000000
1635 11787 1 0.16500 119244.000000
1635 22005 1 0.16500 119244.000000
1636 11787 1 0.16500 119244.000000
1636 13615 1 0.16500 119244.000000
1637 11788 1 0.16500 119244.000000
1637 15942 1 0.16500 119244.000000
1638 11788 1 0.16500 119244.000000
1638 14911 1 0.16500 119244.000000
1639 11788 1 0.16500 119244.000000
1639 14121 1 0.16500 119244.000000
1640 11788 1 0.16500 119244.000000
1640 15187 1 0.16500 119244.000000
1641 11789 1 0.16500 119244.000000
1641 13542 1 0.16500 119244.000000
1642 11789 1 0.16500 119244.000000
1642 12735 1 0.16500 119244.000000
1643 11789 1 0.16500 119244.000000
1643 20094 1 0.16500 119244.000000
1644 18522 1 0.16500 119244.000000
1644 22248 1 0.16500 119244.000000
1645 18522 1 0.16500 119244.000000
1645 22098 1 0.16500 119244.000000
1646 14620 1 0.16500 119244.000000
1646 18522 1 0.16500 119244.000000
1647 11641 1 0.16500 119244.000000
1647 14367 1 0.16500 119244.000000
1648 12304 1 0.16500 119244.000000
1648 13324 1 0.16500 119244.000000
1649 11641 1 0.16500 119244.000000
1649 12304 1 0.16500 119244.000000
1650 11791 1 0.16500 119244.000000
1650 13216 1 0.16500 119244.000000
1651 11791 1 0.16500 119244.000000
1651 16303 1 0.16500 119244.000000
1652 11792 1 0.16500 119244.000000
1652 18534 1 0.16500 119244.000000
1653 11792 1 0.16500 119244.000000
1653 12768 1 0.16500 119244.000000
1654 11792 1 0.16500 119244.000000
1654 11944 1 0.16500 119244.000000
1655 13202 1 0.16500 119244.000000
1655 18534 1 0.16500 119244.000000
1656 11793 1 0.16500 119244.000000
1656 16339 1 0.16500 119244.000000
1657 11793 1 0.16500 119244.000000
1657 13416 1 0.16500 119244.000000
1658 11793 1 0.16500 119244.000000
1658 14532 1 0.16500 119244.000000
1659 11793 1 0.16500 119244.000000
1659 12386 1 0.16500 119244.000000
1660 11794 1 0.16500 119244.000000
1660 12747 1 0.16500 119244.000000
1661 11794 1 0.16500 119244.000000
1661 16513 1 0.16500 119244.000000
1662 11794 1 0.16500 119244.000000
1662 15506 1 0.16500 119244.000000
1663 11794 1 0.16500 119244.000000
1663 13740 1 0.16500 119244.000000
1664 11795 1 0.16500 119244.000000
1664 13218 1 0.16500 119244.000000
1665 11795 1 0.16500 119244.000000
1665 12661 1 0.16500 119244.000000
1666 11795 1 0.16500 119244.000000
1666 12820 1 0.16500 119244.000000
1667 11795 1 0.16500 119244.000000
1667 15580 1 0.16500 119244.000000
1668 11796 1 0.16500 119244.000000
1668 15220 1 0.16500 119244.000000
1669 11796 1 0.16500 119244.000000
1669 15548 1 0.16500 119244.000000
1670 11796 1 0.16500 119244.000000
1670 16490 1 0.16500 119244.000000
1671 11796 1 0.16500 119244.000000
1671 12228 1 0.16500 119244.000000
1672 11797 1 0.16500 119244.000000
1672 13631 1 0.16500 119244.000000
1673 11797 1 0.16500 119244.000000
1673 13800 1 0.16500 119244.000000
1674 11798 1 0.16500 119244.000000
1674 15735 1 0.16500 119244.000000
1675 11798 1 0.16500 119244.000000
1675 14042 1 0.16500 119244.000000
1676 11798 1 0.16500 119244.000000
1676 14913 1 0.16500 119244.000000
1677 11798 1 0.16500 119244.000000
1677 12889 1 0.16500 119244.000000
1678 11799 1 0.16500 119244.000000
1678 15565 1 0.16500 119244.000000
1679 11799 1 0.16500 119244.000000
1679 12659 1 0.16500 119244.000000
1680 11799 1 0.16500 119244.000000
1680 14459 1 0.16500 119244.000000
1681 11800 1 0.16500 119244.000000
1681 14695 1 0.16500 119244.000000
1682 11800 1 0.16500 119244.000000
1682 14428 1 0.16500 119244.000000
1683 11800 1 0.16500 119244.000000
1683 13456 1 0.16500 119244.000000
1684 18252 1 0.16500 119244.000000
1684 21414 1 0.16500 119244.000000
1685 18546 1 0.16500 119244.000000
1685 20670 1 0.16500 119244.000000
1686 13971 1 0.16500 119244.000000
1686 16866 1 0.16500 119244.000000
1687 13971 1 0.16500 119244.000000
1687 18558 1 0.16500 119244.000000
1688 13394 1 0.16500 119244.000000
1688 18558 1 0.16500 119244.000000
1689 11801 1 0.16500 119244.000000
1689 19470 1 0.16500 119244.000000
1690 11801 1 0.16500 119244.000000
1690 14832 1 0.16500 119244.000000
1691 11801 1 0.16500 119244.000000
1691 14990 1 0.16500 119244.000000
1692 11802 1 0.16500 119244.000000
1692 13861 1 0.16500 119244.000000
1693 11802 1 0.16500 119244.000000
1693 13315 1 0.16500 119244.000000
1694 11802 1 0.16500 119244.000000
1694 15615 1 0.16500 119244.000000
1695 11802 1 0.16500 119244.000000
1695 14251 1 0.16500 119244.000000
1696 12455 1 0.16500 119244.000000
1696 16211 1 0.16500 119244.000000
1697 11803 1 0.16500 119244.000000
1697 12455 1 0.16500 119244.000000
1698 11803 1 0.16500 119244.000000
1698 11936 1 0.16500 119244.000000
1699 11803 1 0.16500 119244.000000
1699 12502 1 0.16500 119244.000000
1700 11804 1 0.16500 119244.000000
1700 15959 1 0.16500 119244.000000
1701 11804 1 0.16500 119244.000000
1701 21669 1 0.16500 119244.000000
1702 11804 1 0.16500 119244.000000
1702 13619 1 0.16500 119244.000000
1703 11804 1 0.16500 119244.000000
1703 20442 1 0.16500 119244.000000
1704 11805 1 0.16500 119244.000000
1704 15052 1 0.16500 119244.000000
1705 11805 1 0.16500 119244.000000
1705 13014 1 0.16500 119244.000000
1706 11805 1 0.16500 119244.000000
1706 16320 1 0.16500 119244.000000
1707 11805 1 0.16500 119244.000000
1707 14599 1 0.16500 119244.000000
1708 11806 1 0.16500 119244.000000
1708 12443 1 0.16500 119244.000000
1709 11806 1 0.16500 119244.000000
1709 15065 1 0.16500 119244.000000
1710 11806 1 0.16500 119244.000000
1710 14994 1 0.16500 119244.000000
1711 11807 1 0.16500 119244.000000
1711 15292 1 0.16500 119244.000000
1712 15070 1 0.16500 119244.000000
1712 15292 1 0.16500 119244.000000
1713 11807 1 0.16500 119244.000000
1713 15665 1 0.16500 119244.000000
1714 11807 1 0.16500 119244.000000
1714 14632 1 0.16500 119244.000000
1715 11808 1 0.16500 119244.000000
1715 21999 1 0.16500 119244.000000
1716 11808 1 0.16500 119244.000000
1716 13206 1 0.16500 119244.000000
1717 11808 1 0.16500 119244.000000
1717 16544 1 0.16500 119244.000000
1718 11809 1 0.16500 119244.000000
1718 13101 1 0.16500 119244.000000
1719 11810 1 0.16500 119244.000000
1719 14645 1 0.16500 119244.000000
1720 12868 1 0.16500 119244.000000
1720 16125 1 0.16500 119244.000000
1721 12868 1 0.16500 119244.000000
1721 16040 1 0.16500 119244.000000
1722 11810 1 0.16500 119244.000000
1722 12868 1 0.16500 119244.000000
1723 11811 1 0.16500 119244.000000
1723 13384 1 0.16500 119244.000000
1724 11811 1 0.16500 119244.000000
1724 15524 1 0.16500 119244.000000
1725 11811 1 0.16500 119244.000000
1725 15531 1 0.16500 119244.000000
1726 11811 1 0.16500 119244.000000
1726 16312 1 0.16500 119244.000000
1727 11812 1 0.16500 119244.000000
1727 22191 1 0.16500 119244.000000
1728 11813 1 0.16500 119244.000000
1728 15958 1 0.16500 119244.000000
1729 11813 1 0.16500 119244.000000
1729 14260 1 0.16500 119244.000000
1730 11813 1 0.16500 119244.000000
1730 12165 1 0.16500 119244.000000
1731 11814 1 0.16500 119244.000000
1731 15010 1 0.16500 119244.000000
1732 11814 1 0.16500 119244.000000
1732 15895 1 0.16500 119244.000000
1733 11814 1 0.16500 119244.000000
1733 13280 1 0.16500 119244.000000
1734 11814 1 0.16500 119244.000000
1734 13174 1 0.16500 119244.000000
1735 11815 1 0.16500 119244.000000
1735 14794 1 0.16500 119244.000000
1736 11815 1 0.16500 119244.000000
1736 15482 1 0.16500 119244.000000
1737 11815 1 0.16500 119244.000000
1737 14003 1 0.16500 119244.000000
1738 11816 1 0.16500 119244.000000
1738 15756 1 0.16500 119244.000000
1739 11816 1 0.16500 119244.000000
1739 16492 1 0.16500 119244.000000
1740 14253 1 0.16500 119244.000000
1740 15756 1 0.16500 119244.000000
1741 12410 1 0.16500 119244.000000
1741 16492 1 0.16500 119244.000000
1742 11817 1 0.16500 119244.000000
1742 16656 1 0.16500 119244.000000
1743 11818 1 0.16500 119244.000000
1743 12297 1 0.16500 119244.000000
1744 11818 1 0.16500 119244.000000
1744 12329 1 0.16500 119244.000000
1745 11818 1 0.16500 119244.000000
1745 14653 1 0.16500 119244.000000
1746 11818 1 0.16500 119244.000000
1746 15511 1 0.16500 119244.000000
1747 11819 1 0.16500 119244.000000
1747 12971 1 0.16500 119244.000000
1748 11819 1 0.16500 119244.000000
1748 15371 1 0.16500 119244.000000
1749 11528 1 0.16500 119244.000000
1749 14987 1 0.16500 119244.000000
1750 16195 1 0.16500 119244.000000
1750 16530 1 0.16500 119244.000000
1751 11820 1 0.16500 119244.000000
1751 22269 1 0.16500 119244.000000
1752 11820 1 0.16500 119244.000000
1752 13978 1 0.16500 119244.000000
1753 11820 1 0.16500 119244.000000
1753 14231 1 0.16500 119244.000000
1754 11821 1 0.16500 119244.000000
1754 15691 1 0.16500 119244.000000
1755 11821 1 0.16500 119244.000000
1755 21993 1 0.16500 119244.000000
1756 11821 1 0.16500 119244.000000
1756 21837 1 0.16500 119244.000000
1757 11821 1 0.16500 119244.000000
1757 13138 1 0.16500 119244.000000
1758 16142 1 0.16500 119244.000000
1758 18570 1 0.16500 119244.000000
1759 14231 1 0.16500 119244.000000
1759 18570 1 0.16500 119244.000000
1760 15704 1 0.16500 119244.000000
1760 18570 1 0.16500 119244.000000
1761 11822 1 0.16500 119244.000000
1761 13006 1 0.16500 119244.000000
1762 11822 1 0.16500 119244.000000
1762 15510 1 0.16500 119244.000000
1763 11822 1 0.16500 119244.000000
1763 12102 1 0.16500 119244.000000
1764 11823 1 0.16500 119244.000000
1764 12228 1 0.16500 119244.000000
1765 11823 1 0.16500 119244.000000
1765 13762 1 0.16500 119244.000000
1766 11823 1 0.16500 119244.000000
1766 12325 1 0.16500 119244.000000
1767 11823 1 0.16500 119244.000000
1767 12391 1 0.16500 119244.000000
1768 11824 1 0.16500 119244.000000
1768 14205 1 0.16500 119244.000000
1769 11824 1 0.16500 119244.000000
1769 12833 1 0.16500 119244.000000
1770 11824 1 0.16500 119244.000000
1770 12772 1 0.16500 119244.000000
1771 11824 1 0.16500 119244.000000
1771 14092 1 0.16500 119244.000000
1772 11825 1 0.16500 119244.000000
1772 16852 1 0.16500 119244.000000
1773 11825 1 0.16500 119244.000000
1773 12434 1 0.16500 119244.000000
1774 11825 1 0.16500 119244.000000
1774 21693 1 0.16500 119244.000000
1775 11825 1 0.16500 119244.000000
1775 14357 1 0.16500 119244.000000
1776 16511 1 0.16500 119244.000000
1776 18582 1 0.16500 119244.000000
1777 12718 1 0.16500 119244.000000
1777 18582 1 0.16500 119244.000000
1778 11826 1 0.16500 119244.000000
1778 14519 1 0.16500 119244.000000
1779 11826 1 0.16500 119244.000000
1779 12882 1 0.16500 119244.000000
1780 11826 1 0.16500 119244.000000
1780 16244 1 0.16500 119244.000000
1781 11827 1 0.16500 119244.000000
1781 22212 1 0.16500 119244.000000
1782 11827 1 0.16500 119244.000000
1782 12797 1 0.16500 119244.000000
1783 11827 1 0.16500 119244.000000
1783 13853 1 0.16500 119244.000000
1784 11827 1 0.16500 119244.000000
1784 15957 1 0.16500 119244.000000
1785 11828 1 0.16500 119244.000000
1785 14009 1 0.16500 119244.000000
1786 11828 1 0.16500 119244.000000
1786 15024 1 0.16500 119244.000000
1787 11828 1 0.16500 119244.000000
1787 14863 1 0.16500 119244.000000
1788 11829 1 0.16500 119244.000000
1788 14926 1 0.16500 119244.000000
1789 11829 1 0.16500 119244.000000
1789 14486 1 0.16500 119244.000000
1790 11829 1 0.16500 119244.000000
1790 14701 1 0.16500 119244.000000
1791 11829 1 0.16500 119244.000000
1791 12881 1 0.16500 119244.000000
1792 11830 1 0.16500 119244.000000
1792 12828 1 0.16500 119244.000000
1793 11830 1 0.16500 119244.000000
1793 12924 1 0.16500 119244.000000
1794 11830 1 0.16500 119244.000000
1794 13982 1 0.16500 119244.000000
1795 11831 1 0.16500 119244.000000
1795 13581 1 0.16500 119244.000000
1796 11831 1 0.16500 119244.000000
1796 14866 1 0.16500 119244.000000
1797 11831 1 0.16500 119244.000000
1797 16163 1 0.16500 119244.000000
1798 11831 1 0.16500 119244.000000
1798 14122 1 0.16500 119244.000000
1799 11832 1 0.16500 119244.000000
1799 14044 1 0.16500 119244.000000
1800 11832 1 0.16500 119244.000000
1800 13263 1 0.16500 119244.000000
1801 11832 1 0.16500 119244.000000
1801 12623 1 0.16500 119244.000000
1802 11832 1 0.16500 119244.000000
1802 12335 1 0.16500 119244.000000
1803 11833 1 0.16500 119244.000000
1803 12095 1 0.16500 119244.000000
1804 11833 1 0.16500 119244.000000
1804 14516 1 0.16500 119244.000000
1805 11833 1 0.16500 119244.000000
1805 16516 1 0.16500 119244.000000
1806 11833 1 0.16500 119244.000000
1806 14610 1 0.16500 119244.000000
1807 14996 1 0.16500 119244.000000
1807 18594 1 0.16500 119244.000000
1808 13255 1 0.16500 119244.000000
1808 18594 1 0.16500 119244.000000
1809 11834 1 0.16500 119244.000000
1809 12471 1 0.16500 119244.000000
1810 11834 1 0.16500 119244.000000
1810 12118 1 0.16500 119244.000000
1811 11834 1 0.16500 119244.000000
1811 13454 1 0.16500 119244.000000
1812 11835 1 0.16500 119244.000000
1812 13669 1 0.16500 119244.000000
1813 11835 1 0.16500 119244.000000
1813 11898 1 0.16500 119244.000000
1814 11835 1 0.16500 119244.000000
1814 14137 1 0.16500 119244.000000
1815 11836 1 0.16500 119244.000000
1815 12654 1 0.16500 119244.000000
1816 11836 1 0.16500 119244.000000
1816 12935 1 0.16500 119244.000000
1817 11836 1 0.16500 119244.000000
1817 14227 1 0.16500 119244.000000
1818 11836 1 0.16500 119244.000000
1818 16297 1 0.16500 119244.000000
1819 11837 1 0.16500 119244.000000
1819 12075 1 0.16500 119244.000000
1820 11837 1 0.16500 119244.000000
1820 13031 1 0.16500 119244.000000
1821 11837 1 0.16500 119244.000000
1821 15465 1 0.16500 119244.000000
1822 11838 1 0.16500 119244.000000
1822 13402 1 0.16500 119244.000000
1823 11838 1 0.16500 119244.000000
1823 14740 1 0.16500 119244.000000
1824 11838 1 0.16500 119244.000000
1824 16520 1 0.16500 119244.000000
1825 11839 1 0.16500 119244.000000
1825 15321 1 0.16500 119244.000000
1826 11839 1 0.16500 119244.000000
1826 15858 1 0.16500 119244.000000
1827 11839 1 0.16500 119244.000000
1827 13975 1 0.16500 119244.000000
1828 11839 1 0.16500 119244.000000
1828 15807 1 0.16500 119244.000000
1829 13382 1 0.16500 119244.000000
1829 18606 1 0.16500 119244.000000
1830 18606 1 0.16500 119244.000000
1830 21576 1 0.16500 119244.000000
1831 13942 1 0.16500 119244.000000
1831 18606 1 0.16500 119244.000000
1832 11840 1 0.16500 119244.000000
1832 14114 1 0.16500 119244.000000
1833 11840 1 0.16500 119244.000000
1833 12562 1 0.16500 119244.000000
1834 11840 1 0.16500 119244.000000
1834 15261 1 0.16500 119244.000000
1835 11840 1 0.16500 119244.000000
1835 15480 1 0.16500 119244.000000
1836 11841 1 0.16500 119244.000000
1836 13691 1 0.16500 119244.000000
1837 11841 1 0.16500 119244.000000
1837 12932 1 0.16500 119244.000000
1838 11841 1 0.16500 119244.000000
1838 15643 1 0.16500 119244.000000
1839 11842 1 0.16500 119244.000000
1839 14423 1 0.16500 119244.000000
1840 11842 1 0.16500 119244.000000
1840 13282 1 0.16500 119244.000000
1841 11842 1 0.16500 119244.000000
1841 12431 1 0.16500 119244.000000
1842 11842 1 0.16500 119244.000000
1842 14437 1 0.16500 119244.000000
1843 11843 1 0.16500 119244.000000
1843 16189 1 0.16500 119244.000000
1844 11843 1 0.16500 119244.000000
1844 15802 1 0.16500 119244.000000
1845 11843 1 0.16500 119244.000000
1845 12339 1 0.16500 119244.000000
1846 11843 1 0.16500 119244.000000
1846 15322 1 0.16500 119244.000000
1847 11844 1 0.16500 119244.000000
1847 12620 1 0.16500 119244.000000
1848 11844 1 0.16500 119244.000000
1848 12508 1 0.16500 119244.000000
1849 11844 1 0.16500 119244.000000
1849 12732 1 0.16500 119244.000000
1850 11844 1 0.16500 119244.000000
1850 14165 1 0.16500 119244.000000
1851 11845 1 0.16500 119244.000000
1851 14432 1 0.16500 119244.000000
1852 11845 1 0.16500 119244.000000
1852 12985 1 0.16500 119244.000000
1853 11845 1 0.16500 119244.000000
1853 16026 1 0.16500 119244.000000
1854 11845 1 0.16500 119244.000000
1854 11908 1 0.16500 119244.000000
1855 11846 1 0.16500 119244.000000
1855 14837 1 0.16500 119244.000000
1856 11846 1 0.16500 119244.000000
1856 15267 1 0.16500 119244.000000
1857 11846 1 0.16500 119244.000000
1857 15564 1 0.16500 119244.000000
1858 11392 1 0.16500 119244.000000
1858 21438 1 0.16500 119244.000000
1859 11847 1 0.16500 119244.000000
1859 15186 1 0.16500 119244.000000
1860 11847 1 0.16500 119244.000000
1860 15350 1 0.16500 119244.000000
1861 11847 1 0.16500 119244.000000
1861 12558 1 0.16500 119244.000000
1862 11847 1 0.16500 119244.000000
1862 13018 1 0.16500 119244.000000
1863 12898 1 0.16500 119244.000000
1863 18618 1 0.16500 119244.000000
1864 18618 1 0.16500 119244.000000
1864 20058 1 0.16500 119244.000000
1865 14900 1 0.16500 119244.000000
1865 18618 1 0.16500 119244.000000
1866 16465 1 0.16500 119244.000000
1866 18630 1 0.16500 119244.000000
1867 15489 1 0.16500 119244.000000
1867 18630 1 0.16500 119244.000000
1868 11848 1 0.16500 119244.000000
1868 14216 1 0.16500 119244.000000
1869 11848 1 0.16500 119244.000000
1869 16461 1 0.16500 119244.000000
1870 11848 1 0.16500 119244.000000
1870 15800 1 0.16500 119244.000000
1871 11848 1 0.16500 119244.000000
1871 16014 1 0.16500 119244.000000
1872 11849 1 0.16500 119244.000000
1872 13211 1 0.16500 119244.000000
1873 11849 1 0.16500 119244.000000
1873 11884 1 0.16500 119244.000000
1874 11849 1 0.16500 119244.000000
1874 13749 1 0.16500 119244.000000
1875 11849 1 0.16500 119244.000000
1875 16249 1 0.16500 119244.000000
1876 11850 1 0.16500 119244.000000
1876 15780 1 0.16500 119244.000000
1877 11850 1 0.16500 119244.000000
1877 22092 1 0.16500 119244.000000
1878 11850 1 0.16500 119244.000000
1878 16491 1 0.16500 119244.000000
1879 11851 1 0.16500 119244.000000
1879 14166 1 0.16500 119244.000000
1880 11851 1 0.16500 119244.000000
1880 15981 1 0.16500 119244.000000
1881 11851 1 0.16500 119244.000000
1881 13032 1 0.16500 119244.000000
1882 11851 1 0.16500 119244.000000
1882 12479 1 0.16500 119244.000000
1883 11852 1 0.16500 119244.000000
1883 14058 1 0.16500 119244.000000
1884 11852 1 0.16500 119244.000000
1884 13008 1 0.16500 119244.000000
1885 11852 1 0.16500 119244.000000
1885 14089 1 0.16500 119244.000000
1886 11853 1 0.16500 119244.000000
1886 12299 1 0.16500 119244.000000
1887 11853 1 0.16500 119244.000000
1887 14595 1 0.16500 119244.000000
1888 11853 1 0.16500 119244.000000
1888 13345 1 0.16500 119244.000000
1889 18642 1 0.16500 119244.000000
1889 21765 1 0.16500 119244.000000
1890 16371 1 0.16500 119244.000000
1890 18642 1 0.16500 119244.000000
1891 13116 1 0.16500 119244.000000
1891 18642 1 0.16500 119244.000000
1892 11854 1 0.16500 119244.000000
1892 13986 1 0.16500 119244.000000
1893 11854 1 0.16500 119244.000000
1893 14885 1 0.16500 119244.000000
1894 13986 1 0.16500 119244.000000
1894 15621 1 0.16500 119244.000000
1895 11854 1 0.16500 119244.000000
1895 15638 1 0.16500 119244.000000
1896 18654 1 0.16500 119244.000000
1896 21114 1 0.16500 119244.000000
1897 16393 1 0.16500 119244.000000
1897 18654 1 0.16500 119244.000000
1898 11855 1 0.16500 119244.000000
1898 12024 1 0.16500 119244.000000
1899 11855 1 0.16500 119244.000000
1899 14551 1 0.16500 119244.000000
1900 11855 1 0.16500 119244.000000
1900 14455 1 0.16500 119244.000000
1901 11855 1 0.16500 119244.000000
1901 16177 1 0.16500 119244.000000
1902 14389 1 0.16500 119244.000000
1902 16509 1 0.16500 119244.000000
1903 11856 1 0.16500 119244.000000
1903 12942 1 0.16500 119244.000000
1904 15458 1 0.16500 119244.000000
1904 15821 1 0.16500 119244.000000
1905 11856 1 0.16500 119244.000000
1905 14389 1 0.16500 119244.000000
1906 11857 1 0.16500 119244.000000
1906 15312 1 0.16500 119244.000000
1907 11857 1 0.16500 119244.000000
1907 14498 1 0.16500 119244.000000
1908 11857 1 0.16500 119244.000000
1908 16043 1 0.16500 119244.000000
1909 11857 1 0.16500 119244.000000
1909 12186 1 0.16500 119244.000000
1910 11858 1 0.16500 119244.000000
1910 12989 1 0.16500 119244.000000
1911 11858 1 0.16500 119244.000000
1911 14078 1 0.16500 119244.000000
1912 14078 1 0.16500 119244.000000
1912 14867 1 0.16500 119244.000000
1913 11858 1 0.16500 119244.000000
1913 13737 1 0.16500 119244.000000
1914 11859 1 0.16500 119244.000000
1914 16243 1 0.16500 119244.000000
1915 11859 1 0.16500 119244.000000
1915 16068 1 0.16500 119244.000000
1916 11859 1 0.16500 119244.000000
1916 13133 1 0.16500 119244.000000
1917 11859 1 0.16500 119244.000000
1917 12169 1 0.16500 119244.000000
1918 11860 1 0.16500 119244.000000
1918 14976 1 0.16500 119244.000000
1919 11860 1 0.16500 119244.000000
1919 13484 1 0.16500 119244.000000
1920 11861 1 0.16500 119244.000000
1920 16269 1 0.16500 119244.000000
1921 11861 1 0.16500 119244.000000
1921 15250 1 0.16500 119244.000000
1922 11861 1 0.16500 119244.000000
1922 22311 1 0.16500 119244.000000
1923 11861 1 0.16500 119244.000000
1923 13416 1 0.16500 119244.000000
1924 15284 1 0.16500 119244.000000
1924 16077 1 0.16500 119244.000000
1925 11862 1 0.16500 119244.000000
1925 15284 1 0.16500 119244.000000
1926 11862 1 0.16500 119244.000000
1926 21846 1 0.16500 119244.000000
1927 14716 1 0.16500 119244.000000
1927 21846 1 0.16500 119244.000000
1928 12945 1 0.16500 119244.000000
1928 16255 1 0.16500 119244.000000
1929 11863 1 0.16500 119244.000000
1929 19446 1 0.16500 119244.000000
1930 11972 1 0.16500 119244.000000
1930 16010 1 0.16500 119244.000000
1931 11863 1 0.16500 119244.000000
1931 12945 1 0.16500 119244.000000
1932 11864 1 0.16500 119244.000000
1932 16022 1 0.16500 119244.000000
1933 11864 1 0.16500 119244.000000
1933 16059 1 0.16500 119244.000000
1934 11864 1 0.16500 119244.000000
1934 14821 1 0.16500 119244.000000
1935 11864 1 0.16500 119244.000000
1935 14932 1 0.16500 119244.000000
1936 11865 1 0.16500 119244.000000
1936 13974 1 0.16500 119244.000000
1937 11865 1 0.16500 119244.000000
1937 12114 1 0.16500 119244.000000
1938 11865 1 0.16500 119244.000000
1938 13534 1 0.16500 119244.000000
1939 14239 1 0.16500 119244.000000
1939 19374 1 0.16500 119244.000000
1940 11866 1 0.16500 119244.000000
1940 11917 1 0.16500 119244.000000
1941 11866 1 0.16500 119244.000000
1941 13493 1 0.16500 119244.000000
1942 11866 1 0.16500 119244.000000
1942 15678 1 0.16500 119244.000000
1943 11867 1 0.16500 119244.000000
1943 12718 1 0.16500 119244.000000
1944 11867 1 0.16500 119244.000000
1944 16642 1 0.16500 119244.000000
1945 11867 1 0.16500 119244.000000
1945 21090 1 0.16500 119244.000000
1946 11442 1 0.16500 119244.000000
1946 12612 1 0.16500 119244.000000
1947 11868 1 0.16500 119244.000000
1947 15114 1 0.16500 119244.000000
1948 11442 1 0.16500 119244.000000
1948 14050 1 0.16500 119244.000000
1949 11869 1 0.16500 119244.000000
1949 15079 1 0.16500 119244.000000
1950 11869 1 0.16500 119244.000000
1950 13152 1 0.16500 119244.000000
1951 11869 1 0.16500 119244.000000
1951 22110 1 0.16500 119244.000000
1952 11870 1 0.16500 119244.000000
1952 13703 1 0.16500 119244.000000
1953 11870 1 0.16500 119244.000000
1953 14090 1 0.16500 119244.000000
1954 11870 1 0.16500 119244.000000
1954 14179 1 0.16500 119244.000000
1955 11870 1 0.16500 119244.000000
1955 13031 1 0.16500 119244.000000
1956 11871 1 0.16500 119244.000000
1956 12174 1 0.16500 119244.000000
1957 11871 1 0.16500 119244.000000
1957 12413 1 0.16500 119244.000000
1958 11871 1 0.16500 119244.000000
1958 13323 1 0.16500 119244.000000
1959 11871 1 0.16500 119244.000000
1959 13015 1 0.16500 119244.000000
1960 11872 1 0.16500 119244.000000
1960 17384 1 0.16500 119244.000000
1961 11872 1 0.16500 119244.000000
1961 13858 1 0.16500 119244.000000
1962 11872 1 0.16500 119244.000000
1962 21270 1 0.16500 119244.000000
1963 11872 1 0.16500 119244.000000
1963 12823 1 0.16500 119244.000000
1964 11873 1 0.16500 119244.000000
1964 12019 1 0.16500 119244.000000
1965 11873 1 0.16500 119244.000000
1965 14442 1 0.16500 119244.000000
1966 11873 1 0.16500 119244.000000
1966 16333 1 0.16500 119244.000000
1967 11873 1 0.16500 119244.000000
1967 15980 1 0.16500 119244.000000
1968 11874 1 0.16500 119244.000000
1968 16454 1 0.16500 119244.000000
1969 11874 1 0.16500 119244.000000
1969 18014 1 0.16500 119244.000000
1970 11874 1 0.16500 119244.000000
1970 22017 1 0.16500 119244.000000
1971 11875 1 0.16500 119244.000000
1971 22032 1 0.16500 119244.000000
1972 11875 1 0.16500 119244.000000
1972 19962 1 0.16500 119244.000000
1973 11875 1 0.16500 119244.000000
1973 15679 1 0.16500 119244.000000
1974 13521 1 0.16500 119244.000000
1974 15679 1 0.16500 119244.000000
1975 14653 1 0.16500 119244.000000
1975 15823 1 0.16500 119244.000000
1976 11876 1 0.16500 119244.000000
1976 14864 1 0.16500 119244.000000
1977 11876 1 0.16500 119244.000000
1977 15823 1 0.16500 119244.000000
1978 11876 1 0.16500 119244.000000
1978 12779 1 0.16500 119244.000000
1979 11877 1 0.16500 119244.000000
1979 11903 1 0.16500 119244.000000
1980 11877 1 0.16500 119244.000000
1980 12241 1 0.16500 119244.000000
1981 11877 1 0.16500 119244.000000
1981 13336 1 0.16500 119244.000000
1982 11877 1 0.16500 119244.000000
1982 15286 1 0.16500 119244.000000
1983 11878 1 0.16500 119244.000000
1983 12967 1 0.16500 119244.000000
1984 11878 1 0.16500 119244.000000
1984 22290 1 0.16500 119244.000000
1985 11878 1 0.16500 119244.000000
1985 13970 1 0.16500 119244.000000
1986 11878 1 0.16500 119244.000000
1986 18714 1 0.16500 119244.000000
1987 11879 1 0.16500 119244.000000
1987 20058 1 0.16500 119244.000000
1988 11879 1 0.16500 119244.000000
1988 11935 1 0.16500 119244.000000
1989 15858 1 0.16500 119244.000000
1989 15885 1 0.16500 119244.000000
1990 11879 1 0.16500 119244.000000
1990 15885 1 0.16500 119244.000000
1991 11880 1 0.16500 119244.000000
1991 13916 1 0.16500 119244.000000
1992 11880 1 0.16500 119244.000000
1992 16144 1 0.16500 119244.000000
1993 11880 1 0.16500 119244.000000
1993 22429 1 0.16500 119244.000000
1994 11880 1 0.16500 119244.000000
1994 12096 1 0.16500 119244.000000
1995 11881 1 0.16500 119244.000000
1995 13741 1 0.16500 119244.000000
1996 11881 1 0.16500 119244.000000
1996 13142 1 0.16500 119244.000000
1997 11881 1 0.16500 119244.000000
1997 14421 1 0.16500 119244.000000
1998 11881 1 0.16500 119244.000000
1998 15462 1 0.16500 119244.000000
1999 11882 1 0.16500 119244.000000
1999 14708 1 0.16500 119244.000000
2000 11882 1 0.16500 119244.000000
2000 13063 1 0.16500 119244.000000
2001 11882 1 0.16500 119244.000000
2001 14368 1 0.16500 119244.000000
2002 11882 1 0.16500 119244.000000
2002 15011 1 0.16500 119244.000000
2003 11883 1 0.16500 119244.000000
2003 12129 1 0.16500 119244.000000
2004 11883 1 0.16500 119244.000000
2004 13900 1 0.16500 119244.000000
2005 11883 1 0.16500 119244.000000
2005 15557 1 0.16500 119244.000000
2006 11884 1 0.16500 119244.000000
2006 15985 1 0.16500 119244.000000
2007 11884 1 0.16500 119244.000000
2007 14789 1 0.16500 119244.000000
2008 11884 1 0.16500 119244.000000
2008 14606 1 0.16500 119244.000000
2009 14155 1 0.16500 119244.000000
2009 18266 1 0.16500 119244.000000
2010 11885 1 0.16500 119244.000000
2010 14794 1 0.16500 119244.000000
2011 11885 1 0.16500 119244.000000
2011 12953 1 0.16500 119244.000000
2012 11885 1 0.16500 119244.000000
2012 13035 1 0.16500 119244.000000
2013 11885 1 0.16500 119244.000000
2013 13238 1 0.16500 119244.000000
2014 11886 1 0.16500 119244.000000
2014 19974 1 0.16500 119244.000000
2015 11886 1 0.16500 119244.000000
2015 13363 1 0.16500 119244.000000
2016 11886 1 0.16500 119244.000000
2016 15635 1 0.16500 119244.000000
2017 11886 1 0.16500 119244.000000
2017 13152 1 0.16500 119244.000000
2018 13629 1 0.16500 119244.000000
2018 18666 1 0.16500 119244.000000
2019 18666 1 0.16500 119244.000000
2019 21891 1 0.16500 119244.000000
2020 11887 1 0.16500 119244.000000
2020 15053 1 0.16500 119244.000000
2021 11887 1 0.16500 119244.000000
2021 12667 1 0.16500 119244.000000
2022 11887 1 0.16500 119244.000000
2022 12205 1 0.16500 119244.000000
2023 11888 1 0.16500 119244.000000
2023 12795 1 0.16500 119244.000000
2024 11888 1 0.16500 119244.000000
2024 15003 1 0.16500 119244.000000
2025 11888 1 0.16500 119244.000000
2025 12836 1 0.16500 119244.000000
2026 11888 1 0.16500 119244.000000
2026 18350 1 0.16500 119244.000000
2027 11889 1 0.16500 119244.000000
2027 12159 1 0.16500 119244.000000
2028 11889 1 0.16500 119244.000000
2028 15808 1 0.16500 119244.000000
2029 11890 1 0.16500 119244.000000
2029 13362 1 0.16500 119244.000000
2030 11890 1 0.16500 119244.000000
2030 15080 1 0.16500 119244.000000
2031 11890 1 0.16500 119244.000000
2031 21948 1 0.16500 119244.000000
2032 11890 1 0.16500 119244.000000
2032 12447 1 0.16500 119244.000000
2033 11891 1 0.16500 119244.000000
2033 13895 1 0.16500 119244.000000
2034 11891 1 0.16500 119244.000000
2034 16320 1 0.16500 119244.000000
2035 11891 1 0.16500 119244.000000
2035 15347 1 0.16500 119244.000000
2036 11891 1 0.16500 119244.000000
2036 22305 1 0.16500 119244.000000
2037 11892 1 0.16500 119244.000000
2037 14831 1 0.16500 119244.000000
2038 11892 1 0.16500 119244.000000
2038 14974 1 0.16500 119244.000000
2039 11892 1 0.16500 119244.000000
2039 14885 1 0.16500 119244.000000
2040 11892 1 0.16500 119244.000000
2040 12111 1 0.16500 119244.000000
2041 16361 1 0.16500 119244.000000
2041 18678 1 0.16500 119244.000000
2042 18678 1 0.16500 119244.000000
2042 22119 1 0.16500 119244.000000
2043 13397 1 0.16500 119244.000000
2043 18690 1 0.16500 119244.000000
2044 15155 1 0.16500 119244.000000
2044 18690 1 0.16500 119244.000000
2045 18690 1 0.16500 119244.000000
2045 20850 1 0.16500 119244.000000
2046 18702 1 0.16500 119244.000000
2046 21246 1 0.16500 119244.000000
2047 14751 1 0.16500 119244.000000
2047 18702 1 0.16500 119244.000000
2048 15196 1 0.16500 119244.000000
2048 18702 1 0.16500 119244.000000
2049 11893 1 0.16500 119244.000000
2049 13085 1 0.16500 119244.000000
2050 11893 1 0.16500 119244.000000
2050 15315 1 0.16500 119244.000000
2051 11893 1 0.16500 119244.000000
2051 13458 1 0.16500 119244.000000
2052 11893 1 0.16500 119244.000000
2052 13154 1 0.16500 119244.000000
2053 11894 1 0.16500 119244.000000
2053 11899 1 0.16500 119244.000000
2054 11894 1 0.16500 119244.000000
2054 13110 1 0.16500 119244.000000
2055 11895 1 0.16500 119244.000000
2055 12171 1 0.16500 119244.000000
2056 11895 1 0.16500 119244.000000
2056 15921 1 0.16500 119244.000000
2057 11895 1 0.16500 119244.000000
2057 16063 1 0.16500 119244.000000
2058 11895 1 0.16500 119244.000000
2058 12088 1 0.16500 119244.000000
2059 11896 1 0.16500 119244.000000
2059 13271 1 0.16500 119244.000000
2060 11896 1 0.16500 119244.000000
2060 12173 1 0.16500 119244.000000
2061 11896 1 0.16500 119244.000000
2061 14150 1 0.16500 119244.000000
2062 11897 1 0.16500 119244.000000
2062 15852 1 0.16500 119244.000000
2063 11897 1 0.16500 119244.000000
2063 15033 1 0.16500 119244.000000
2064 11897 1 0.16500 119244.000000
2064 12349 1 0.16500 119244.000000
2065 11897 1 0.16500 119244.000000
2065 15577 1 0.16500 119244.000000
2066 18714 1 0.16500 119244.000000
2066 20766 1 0.16500 119244.000000
2067 11898 1 0.16500 119244.000000
2067 13520 1 0.16500 119244.000000
2068 11898 1 0.16500 119244.000000
2068 15268 1 0.16500 119244.000000
2069 11898 1 0.16500 119244.000000
2069 12960 1 0.16500 119244.000000
2070 11899 1 0.16500 119244.000000
2070 11953 1 0.16500 119244.000000
2071 11899 1 0.16500 119244.000000
2071 14383 1 0.16500 119244.000000
2072 11900 1 0.16500 119244.000000
2072 13859 1 0.16500 119244.000000
2073 11900 1 0.16500 119244.000000
2073 14922 1 0.16500 119244.000000
2074 11560 1 0.16500 119244.000000
2074 15750 1 0.16500 119244.000000
2075 11901 1 0.16500 119244.000000
2075 12429 1 0.16500 119244.000000
2076 11901 1 0.16500 119244.000000
2076 14344 1 0.16500 119244.000000
2077 11901 1 0.16500 119244.000000
2077 15120 1 0.16500 119244.000000
2078 11901 1 0.16500 119244.000000
2078 16424 1 0.16500 119244.000000
2079 11902 1 0.16500 119244.000000
2079 14095 1 0.16500 119244.000000
2080 11902 1 0.16500 119244.000000
2080 14794 1 0.16500 119244.000000
2081 11902 1 0.16500 119244.000000
2081 12896 1 0.16500 119244.000000
2082 11903 1 0.16500 119244.000000
2082 12337 1 0.16500 119244.000000
2083 11903 1 0.16500 119244.000000
2083 16109 1 0.16500 119244.000000
2084 11904 1 0.16500 119244.000000
2084 14394 1 0.16500 119244.000000
2085 11904 1 0.16500 119244.000000
2085 14739 1 0.16500 119244.000000
2086 11904 1 0.16500 119244.000000
2086 16013 1 0.16500 119244.000000
2087 11904 1 0.16500 119244.000000
2087 12839 1 0.16500 119244.000000
2088 11905 1 0.16500 119244.000000
2088 12338 1 0.16500 119244.000000
2089 11905 1 0.16500 119244.000000
2089 13635 1 0.16500 119244.000000
2090 11905 1 0.16500 119244.000000
2090 13069 1 0.16500 119244.000000
2091 11905 1 0.16500 119244.000000
2091 13850 1 0.16500 119244.000000
2092 11906 1 0.16500 119244.000000
2092 15747 1 0.16500 119244.000000
2093 11906 1 0.16500 119244.000000
2093 13650 1 0.16500 119244.000000
2094 11906 1 0.16500 119244.000000
2094 14763 1 0.16500 119244.000000
2095 11906 1 0.16500 119244.000000
2095 19398 1 0.16500 119244.000000
2096 14411 1 0.16500 119244.000000
2096 18726 1 0.16500 119244.000000
2097 18726 1 0.16500 119244.000000
2097 19422 1 0.16500 119244.000000
2098 11907 1 0.16500 119244.000000
2098 16334 1 0.16500 119244.000000
2099 16334 1 0.16500 119244.000000
2099 21927 1 0.16500 119244.000000
2100 11907 1 0.16500 119244.000000
2100 18000 1 0.16500 119244.000000
2101 11908 1 0.16500 119244.000000
2101 11929 1 0.16500 119244.000000
2102 11908 1 0.16500 119244.000000
2102 15773 1 0.16500 119244.000000
2103 11908 1 0.16500 119244.000000
2103 15772 1 0.16500 119244.000000
2104 11909 1 0.16500 119244.000000
2104 16220 1 0.16500 119244.000000
2105 11909 1 0.16500 119244.000000
2105 13416 1 0.16500 119244.000000
2106 11909 1 0.16500 119244.000000
2106 16020 1 0.16500 119244.000000
2107 11910 1 0.16500 119244.000000
2107 21054 1 0.16500 119244.000000
2108 11910 1 0.16500 119244.000000
2108 16351 1 0.16500 119244.000000
2109 11911 1 0.16500 119244.000000
2109 12769 1 0.16500 119244.000000
2110 11911 1 0.16500 119244.000000
2110 15764 1 0.16500 119244.000000
2111 11911 1 0.16500 119244.000000
2111 14543 1 0.16500 119244.000000
2112 11911 1 0.16500 119244.000000
2112 21897 1 0.16500 119244.000000
2113 11912 1 0.16500 119244.000000
2113 15934 1 0.16500 119244.000000
2114 11912 1 0.16500 119244.000000
2114 12961 1 0.16500 119244.000000
2115 11912 1 0.16500 119244.000000
2115 13457 1 0.16500 119244.000000
2116 11912 1 0.16500 119244.000000
2116 15182 1 0.16500 119244.000000
2117 12153 1 0.16500 119244.000000
2117 13792 1 0.16500 119244.000000
2118 11913 1 0.16500 119244.000000
2118 13792 1 0.16500 119244.000000
2119 11913 1 0.16500 119244.000000
2119 15920 1 0.16500 119244.000000
2120 11913 1 0.16500 119244.000000
2120 14004 1 0.16500 119244.000000
2121 11914 1 0.16500 119244.000000
2121 13941 1 0.16500 119244.000000
2122 11914 1 0.16500 119244.000000
2122 13414 1 0.16500 119244.000000
2123 11914 1 0.16500 119244.000000
2123 12736 1 0.16500 119244.000000
2124 11914 1 0.16500 119244.000000
2124 16385 1 0.16500 119244.000000
2125 11915 1 0.16500 119244.000000
2125 16427 1 0.16500 119244.000000
2126 11915 1 0.16500 119244.000000
2126 13146 1 0.16500 119244.000000
2127 11916 1 0.16500 119244.000000
2127 12306 1 0.16500 119244.000000
2128 11916 1 0.16500 119244.000000
2128 12601 1 0.16500 119244.000000
2129 11916 1 0.16500 119244.000000
2129 16049 1 0.16500 119244.000000
2130 11916 1 0.16500 119244.000000
2130 15438 1 0.16500 119244.000000
2131 11917 1 0.16500 119244.000000
2131 14807 1 0.16500 119244.000000
2132 11917 1 0.16500 119244.000000
2132 14282 1 0.16500 119244.000000
2133 11918 1 0.16500 119244.000000
2133 11971 1 0.16500 119244.000000
2134 11918 1 0.16500 119244.000000
2134 13305 1 0.16500 119244.000000
2135 11918 1 0.16500 119244.000000
2135 15189 1 0.16500 119244.000000
2136 11918 1 0.16500 119244.000000
2136 13641 1 0.16500 119244.000000
2137 11919 1 0.16500 119244.000000
2137 14105 1 0.16500 119244.000000
2138 11919 1 0.16500 119244.000000
2138 15542 1 0.16500 119244.000000
2139 11919 1 0.16500 119244.000000
2139 19062 1 0.16500 119244.000000
2140 11920 1 0.16500 119244.000000
2140 13821 1 0.16500 119244.000000
2141 11920 1 0.16500 119244.000000
2141 13059 1 0.16500 119244.000000
2142 11920 1 0.16500 119244.000000
2142 12753 1 0.16500 119244.000000
2143 11920 1 0.16500 119244.000000
2143 15085 1 0.16500 119244.000000
2144 11921 1 0.16500 119244.000000
2144 16211 1 0.16500 119244.000000
2145 11921 1 0.16500 119244.000000
2145 13054 1 0.16500 119244.000000
2146 11921 1 0.16500 119244.000000
2146 13503 1 0.16500 119244.000000
2147 11921 1 0.16500 119244.000000
2147 13082 1 0.16500 119244.000000
2148 17552 1 0.16500 119244.000000
2148 18738 1 0.16500 119244.000000
2149 11922 1 0.16500 119244.000000
2149 13430 1 0.16500 119244.000000
2150 11922 1 0.16500 119244.000000
2150 16306 1 0.16500 119244.000000
2151 11922 1 0.16500 119244.000000
2151 14935 1 0.16500 119244.000000
2152 11923 1 0.16500 119244.000000
2152 15738 1 0.16500 119244.000000
2153 11923 1 0.16500 119244.000000
2153 15999 1 0.16500 119244.000000
2154 11923 1 0.16500 119244.000000
2154 15086 1 0.16500 119244.000000
2155 11923 1 0.16500 119244.000000
2155 16231 1 0.16500 119244.000000
2156 11924 1 0.16500 119244.000000
2156 15806 1 0.16500 119244.000000
2157 11924 1 0.16500 119244.000000
2157 16221 1 0.16500 119244.000000
2158 11924 1 0.16500 119244.000000
2158 13780 1 0.16500 119244.000000
2159 14373 1 0.16500 119244.000000
2159 18750 1 0.16500 119244.000000
2160 12580 1 0.16500 119244.000000
2160 18750 1 0.16500 119244.000000
2161 12754 1 0.16500 119244.000000
2161 18762 1 0.16500 119244.000000
2162 16403 1 0.16500 119244.000000
2162 18762 1 0.16500 119244.000000
2163 14356 1 0.16500 119244.000000
2163 20706 1 0.16500 119244.000000
2164 18762 1 0.16500 119244.000000
2164 20706 1 0.16500 119244.000000
2165 14239 1 0.16500 119244.000000
2165 18774 1 0.16500 119244.000000
2166 13904 1 0.16500 119244.000000
2166 18774 1 0.16500 119244.000000
2167 11925 1 0.16500 119244.000000
2167 15293 1 0.16500 119244.000000
2168 11925 1 0.16500 119244.000000
2168 14401 1 0.16500 119244.000000
2169 11925 1 0.16500 119244.000000
2169 15344 1 0.16500 119244.000000
2170 11925 1 0.16500 119244.000000
2170 14536 1 0.16500 119244.000000
2171 11926 1 0.16500 119244.000000
2171 13331 1 0.16500 119244.000000
2172 11926 1 0.16500 119244.000000
2172 14624 1 0.16500 119244.000000
2173 11926 1 0.16500 119244.000000
2173 16363 1 0.16500 119244.000000
2174 11926 1 0.16500 119244.000000
2174 15377 1 0.16500 119244.000000
2175 11927 1 0.16500 119244.000000
2175 12764 1 0.16500 119244.000000
2176 16346 1 0.16500 119244.000000
2176 17300 1 0.16500 119244.000000
2177 11927 1 0.16500 119244.000000
2177 13881 1 0.16500 119244.000000
2178 11927 1 0.16500 119244.000000
2178 16346 1 0.16500 119244.000000
2179 11928 1 0.16500 119244.000000
2179 15263 1 0.16500 119244.000000
2180 11928 1 0.16500 119244.000000
2180 14360 1 0.16500 119244.000000
2181 11929 1 0.16500 119244.000000
2181 15705 1 0.16500 119244.000000
2182 11929 1 0.16500 119244.000000
2182 14008 1 0.16500 119244.000000
2183 11929 1 0.16500 119244.000000
2183 13844 1 0.16500 119244.000000
2184 11930 1 0.16500 119244.000000
2184 12565 1 0.16500 119244.000000
2185 11930 1 0.16500 119244.000000
2185 14606 1 0.16500 119244.000000
2186 11930 1 0.16500 119244.000000
2186 16467 1 0.16500 119244.000000
2187 11930 1 0.16500 119244.000000
2187 14164 1 0.16500 119244.000000
2188 11931 1 0.16500 119244.000000
2188 12787 1 0.16500 119244.000000
2189 11931 1 0.16500 119244.000000
2189 16072 1 0.16500 119244.000000
2190 11931 1 0.16500 119244.000000
2190 12362 1 0.16500 119244.000000
2191 11931 1 0.16500 119244.000000
2191 13829 1 0.16500 119244.000000
2192 11932 1 0.16500 119244.000000
2192 16459 1 0.16500 119244.000000
2193 11932 1 0.16500 119244.000000
2193 16254 1 0.16500 119244.000000
2194 15332 1 0.16500 119244.000000
2194 16275 1 0.16500 119244.000000
2195 11932 1 0.16500 119244.000000
2195 16275 1 0.16500 119244.000000
2196 11933 1 0.16500 119244.000000
2196 15731 1 0.16500 119244.000000
2197 11933 1 0.16500 119244.000000
2197 15529 1 0.16500 119244.000000
2198 11933 1 0.16500 119244.000000
2198 15963 1 0.16500 119244.000000
2199 11933 1 0.16500 119244.000000
2199 15090 1 0.16500 119244.000000
2200 15218 1 0.16500 119244.000000
2200 18786 1 0.16500 119244.000000
2201 14889 1 0.16500 119244.000000
2201 18786 1 0.16500 119244.000000
2202 11934 1 0.16500 119244.000000
2202 12732 1 0.16500 119244.000000
2203 11934 1 0.16500 119244.000000
2203 12710 1 0.16500 119244.000000
2204 11934 1 0.16500 119244.000000
2204 15999 1 0.16500 119244.000000
2205 11934 1 0.16500 119244.000000
2205 13794 1 0.16500 119244.000000
2206 11935 1 0.16500 119244.000000
2206 15864 1 0.16500 119244.000000
2207 11935 1 0.16500 119244.000000
2207 13041 1 0.16500 119244.000000
2208 11935 1 0.16500 119244.000000
2208 11942 1 0.16500 119244.000000
2209 11936 1 0.16500 119244.000000
2209 15084 1 0.16500 119244.000000
2210 11936 1 0.16500 119244.000000
2210 12930 1 0.16500 119244.000000
2211 11936 1 0.16500 119244.000000
2211 12875 1 0.16500 119244.000000
2212 11937 1 0.16500 119244.000000
2212 13073 1 0.16500 119244.000000
2213 11937 1 0.16500 119244.000000
2213 15255 1 0.16500 119244.000000
2214 11937 1 0.16500 119244.000000
2214 12585 1 0.16500 119244.000000
2215 11937 1 0.16500 119244.000000
2215 16452 1 0.16500 119244.000000
2216 11938 1 0.16500 119244.000000
2216 12334 1 0.16500 119244.000000
2217 11938 1 0.16500 119244.000000
2217 12560 1 0.16500 119244.000000
2218 11939 1 0.16500 119244.000000
2218 15251 1 0.16500 119244.000000
2219 11939 1 0.16500 119244.000000
2219 12606 1 0.16500 119244.000000
2220 11939 1 0.16500 119244.000000
2220 15478 1 0.16500 119244.000000
2221 11939 1 0.16500 119244.000000
2221 15706 1 0.16500 119244.000000
2222 11940 1 0.16500 119244.000000
2222 13165 1 0.16500 119244.000000
2223 11940 1 0.16500 119244.000000
2223 15160 1 0.16500 119244.000000
2224 11940 1 0.16500 119244.000000
2224 13743 1 0.16500 119244.000000
2225 11940 1 0.16500 119244.000000
2225 14493 1 0.16500 119244.000000
2226 11941 1 0.16500 119244.000000
2226 13377 1 0.16500 119244.000000
2227 11941 1 0.16500 119244.000000
2227 15617 1 0.16500 119244.000000
2228 11941 1 0.16500 119244.000000
2228 15406 1 0.16500 119244.000000
2229 11941 1 0.16500 119244.000000
2229 13368 1 0.16500 119244.000000
2230 11942 1 0.16500 119244.000000
2230 15003 1 0.16500 119244.000000
2231 11942 1 0.16500 119244.000000
2231 15807 1 0.16500 119244.000000
2232 11942 1 0.16500 119244.000000
2232 12898 1 0.16500 119244.000000
2233 12456 1 0.16500 119244.000000
2233 18798 1 0.16500 119244.000000
2234 12856 1 0.16500 119244.000000
2234 18798 1 0.16500 119244.000000
2235 11943 1 0.16500 119244.000000
2235 13854 1 0.16500 119244.000000
2236 11943 1 0.16500 119244.000000
2236 12883 1 0.16500 119244.000000
2237 11943 1 0.16500 119244.000000
2237 14762 1 0.16500 119244.000000
2238 11943 1 0.16500 119244.000000
2238 13366 1 0.16500 119244.000000
2239 11944 1 0.16500 119244.000000
2239 14949 1 0.16500 119244.000000
2240 11944 1 0.16500 119244.000000
2240 21282 1 0.16500 119244.000000
2241 11944 1 0.16500 119244.000000
2241 12484 1 0.16500 119244.000000
2242 11945 1 0.16500 119244.000000
2242 15982 1 0.16500 119244.000000
2243 11945 1 0.16500 119244.000000
2243 13717 1 0.16500 119244.000000
2244 11945 1 0.16500 119244.000000
2244 12895 1 0.16500 119244.000000
2245 11945 1 0.16500 119244.000000
2245 15784 1 0.16500 119244.000000
2246 11946 1 0.16500 119244.000000
2246 16978 1 0.16500 119244.000000
2247 11946 1 0.16500 119244.000000
2247 16439 1 0.16500 119244.000000
2248 11946 1 0.16500 119244.000000
2248 13085 1 0.16500 119244.000000
2249 11946 1 0.16500 119244.000000
2249 14921 1 0.16500 119244.000000
2250 11947 1 0.16500 119244.000000
2250 14517 1 0.16500 119244.000000
2251 11947 1 0.16500 119244.000000
2251 12962 1 0.16500 119244.000000
2252 11947 1 0.16500 119244.000000
2252 15496 1 0.16500 119244.000000
2253 11948 1 0.16500 119244.000000
2253 21876 1 0.16500 119244.000000
2254 11948 1 0.16500 119244.000000
2254 13530 1 0.16500 119244.000000
2255 11948 1 0.16500 119244.000000
2255 13602 1 0.16500 119244.000000
2256 11948 1 0.16500 119244.000000
2256 13933 1 0.16500 119244.000000
2257 11949 1 0.16500 119244.000000
2257 12904 1 0.16500 119244.000000
2258 11949 1 0.16500 119244.000000
2258 14557 1 0.16500 119244.000000
2259 11949 1 0.16500 119244.000000
2259 15962 1 0.16500 119244.000000
2260 11949 1 0.16500 119244.000000
2260 13423 1 0.16500 119244.000000
2261 11950 1 0.16500 119244.000000
2261 14705 1 0.16500 119244.000000
2262 11950 1 0.16500 119244.000000
2262 16042 1 0.16500 119244.000000
2263 11950 1 0.16500 119244.000000
2263 13021 1 0.16500 119244.000000
2264 11950 1 0.16500 119244.000000
2264 14953 1 0.16500 119244.000000
2265 11951 1 0.16500 119244.000000
2265 14593 1 0.16500 119244.000000
2266 11951 1 0.16500 119244.000000
2266 13212 1 0.16500 119244.000000
2267 11951 1 0.16500 119244.000000
2267 13714 1 0.16500 119244.000000
2268 11951 1 0.16500 119244.000000
2268 12368 1 0.16500 119244.000000
2269 12135 1 0.16500 119244.000000
2269 16396 1 0.16500 119244.000000
2270 11952 1 0.16500 119244.000000
2270 16396 1 0.16500 119244.000000
2271 11952 1 0.16500 119244.000000
2271 16259 1 0.16500 119244.000000
2272 11952 1 0.16500 119244.000000
2272 12179 1 0.16500 119244.000000
2273 11953 1 0.16500 119244.000000
2273 12638 1 0.16500 119244.000000
2274 11953 1 0.16500 119244.000000
2274 14861 1 0.16500 119244.000000
2275 11953 1 0.16500 119244.000000
2275 15115 1 0.16500 119244.000000
2276 11954 1 0.16500 119244.000000
2276 14309 1 0.16500 119244.000000
2277 11954 1 0.16500 119244.000000
2277 12915 1 0.16500 119244.000000
2278 11954 1 0.16500 119244.000000
2278 13369 1 0.16500 119244.000000
2279 11954 1 0.16500 119244.000000
2279 16190 1 0.16500 119244.000000
2280 11955 1 0.16500 119244.000000
2280 15247 1 0.16500 119244.000000
2281 11955 1 0.16500 119244.000000
2281 13779 1 0.16500 119244.000000
2282 11955 1 0.16500 119244.000000
2282 15392 1 0.16500 119244.000000
2283 11955 1 0.16500 119244.000000
2283 15543 1 0.16500 119244.000000
2284 11956 1 0.16500 119244.000000
2284 13491 1 0.16500 119244.000000
2285 11956 1 0.16500 119244.000000
2285 13505 1 0.16500 119244.000000
2286 11956 1 0.16500 119244.000000
2286 12258 1 0.16500 119244.000000
2287 11956 1 0.16500 119244.000000
2287 14860 1 0.16500 119244.000000
2288 11957 1 0.16500 119244.000000
2288 14300 1 0.16500 119244.000000
2289 11957 1 0.16500 119244.000000
2289 12595 1 0.16500 119244.000000
2290 11957 1 0.16500 119244.000000
2290 14796 1 0.16500 119244.000000
2291 11958 1 0.16500 119244.000000
2291 16387 1 0.16500 119244.000000
2292 11958 1 0.16500 119244.000000
2292 14497 1 0.16500 119244.000000
2293 11958 1 0.16500 119244.000000
2293 14604 1 0.16500 119244.000000
2294 11958 1 0.16500 119244.000000
2294 12190 1 0.16500 119244.000000
2295 15318 1 0.16500 119244.000000
2295 18810 1 0.16500 119244.000000
2296 12720 1 0.16500 119244.000000
2296 18822 1 0.16500 119244.000000
2297 18822 1 0.16500 119244.000000
2297 19878 1 0.16500 119244.000000
2298 17188 1 0.16500 119244.000000
2298 18822 1 0.16500 119244.000000
2299 13772 1 0.16500 119244.000000
2299 18834 1 0.16500 119244.000000
2300 11959 1 0.16500 119244.000000
2300 16196 1 0.16500 119244.000000
2301 11959 1 0.16500 119244.000000
2301 14917 1 0.16500 119244.000000
2302 11959 1 0.16500 119244.000000
2302 12172 1 0.16500 119244.000000
2303 11959 1 0.16500 119244.000000
2303 13856 1 0.16500 119244.000000
2304 13747 1 0.16500 119244.000000
2304 18846 1 0.16500 119244.000000
2305 11960 1 0.16500 119244.000000
2305 16101 1 0.16500 119244.000000
2306 11960 1 0.16500 119244.000000
2306 14065 1 0.16500 119244.000000
2307 11960 1 0.16500 119244.000000
2307 13117 1 0.16500 119244.000000
2308 11960 1 0.16500 119244.000000
2308 15731 1 0.16500 119244.000000
2309 11961 1 0.16500 119244.000000
2309 12480 1 0.16500 119244.000000
2310 11961 1 0.16500 119244.000000
2310 15479 1 0.16500 119244.000000
2311 11961 1 0.16500 119244.000000
2311 15115 1 0.16500 119244.000000
2312 11961 1 0.16500 119244.000000
2312 15567 1 0.16500 119244.000000
2313 11962 1 0.16500 119244.000000
2313 16242 1 0.16500 119244.000000
2314 11962 1 0.16500 119244.000000
2314 13378 1 0.16500 119244.000000
2315 11962 1 0.16500 119244.000000
2315 13725 1 0.16500 119244.000000
2316 11962 1 0.16500 119244.000000
2316 15165 1 0.16500 119244.000000
2317 11963 1 0.16500 119244.000000
2317 16122 1 0.16500 119244.000000
2318 11963 1 0.16500 119244.000000
2318 16147 1 0.16500 119244.000000
2319 11963 1 0.16500 119244.000000
2319 13404 1 0.16500 119244.000000
2320 11963 1 0.16500 119244.000000
2320 12691 1 0.16500 119244.000000
2321 11964 1 0.16500 119244.000000
2321 14154 1 0.16500 119244.000000
2322 11964 1 0.16500 119244.000000
2322 14734 1 0.16500 119244.000000
2323 11964 1 0.16500 119244.000000
2323 15262 1 0.16500 119244.000000
2324 18870 1 0.16500 119244.000000
2324 19806 1 0.16500 119244.000000
2325 14871 1 0.16500 119244.000000
2325 18870 1 0.16500 119244.000000
2326 11965 1 0.16500 119244.000000
2326 13453 1 0.16500 119244.000000
2327 11965 1 0.16500 119244.000000
2327 13124 1 0.16500 119244.000000
2328 11965 1 0.16500 119244.000000
2328 12014 1 0.16500 119244.000000
2329 11965 1 0.16500 119244.000000
2329 13914 1 0.16500 119244.000000
2330 11966 1 0.16500 119244.000000
2330 14556 1 0.16500 119244.000000
2331 11966 1 0.16500 119244.000000
2331 16381 1 0.16500 119244.000000
2332 13770 1 0.16500 119244.000000
2332 14556 1 0.16500 119244.000000
2333 11967 1 0.16500 119244.000000
2333 12390 1 0.16500 119244.000000
2334 11967 1 0.16500 119244.000000
2334 12225 1 0.16500 119244.000000
2335 11967 1 0.16500 119244.000000
2335 14310 1 0.16500 119244.000000
2336 11967 1 0.16500 119244.000000
2336 14726 1 0.16500 119244.000000
2337 14907 1 0.16500 119244.000000
2337 15328 1 0.16500 119244.000000
2338 11784 1 0.16500 119244.000000
2338 11968 1 0.16500 119244.000000
2339 15328 1 0.16500 119244.000000
2339 16109 1 0.16500 119244.000000
2340 11968 1 0.16500 119244.000000
2340 15328 1 0.16500 119244.000000
2341 11969 1 0.16500 119244.000000
2341 15088 1 0.16500 119244.000000
2342 12456 1 0.16500 119244.000000
2342 14558 1 0.16500 119244.000000
2343 11969 1 0.16500 119244.000000
2343 14558 1 0.16500 119244.000000
2344 11970 1 0.16500 119244.000000
2344 12584 1 0.16500 119244.000000
2345 11970 1 0.16500 119244.000000
2345 13240 1 0.16500 119244.000000
2346 11970 1 0.16500 119244.000000
2346 16058 1 0.16500 119244.000000
2347 11970 1 0.16500 119244.000000
2347 15089 1 0.16500 119244.000000
2348 11971 1 0.16500 119244.000000
2348 13434 1 0.16500 119244.000000
2349 11971 1 0.16500 119244.000000
2349 15898 1 0.16500 119244.000000
2350 11972 1 0.16500 119244.000000
2350 12945 1 0.16500 119244.000000
2351 11972 1 0.16500 119244.000000
2351 14297 1 0.16500 119244.000000
2352 12945 1 0.16500 119244.000000
2352 15412 1 0.16500 119244.000000
2353 11972 1 0.16500 119244.000000
2353 15310 1 0.16500 119244.000000
2354 11973 1 0.16500 119244.000000
2354 15971 1 0.16500 119244.000000
2355 11973 1 0.16500 119244.000000
2355 16137 1 0.16500 119244.000000
2356 11973 1 0.16500 119244.000000
2356 12877 1 0.16500 119244.000000
2357 11973 1 0.16500 119244.000000
2357 13663 1 0.16500 119244.000000
2358 11974 1 0.16500 119244.000000
2358 13079 1 0.16500 119244.000000
2359 11974 1 0.16500 119244.000000
2359 14074 1 0.16500 119244.000000
2360 11974 1 0.16500 119244.000000
2360 14229 1 0.16500 119244.000000
2361 11974 1 0.16500 119244.000000
2361 14670 1 0.16500 119244.000000
2362 11975 1 0.16500 119244.000000
2362 13378 1 0.16500 119244.000000
2363 11975 1 0.16500 119244.000000
2363 14712 1 0.16500 119244.000000
2364 11975 1 0.16500 119244.000000
2364 14767 1 0.16500 119244.000000
2365 11975 1 0.16500 119244.000000
2365 12278 1 0.16500 119244.000000
2366 11976 1 0.16500 119244.000000
2366 13537 1 0.16500 119244.000000
2367 11976 1 0.16500 119244.000000
2367 15232 1 0.16500 119244.000000
2368 11976 1 0.16500 119244.000000
2368 13636 1 0.16500 119244.000000
2369 11976 1 0.16500 119244.000000
2369 13378 1 0.16500 119244.000000
2370 11977 1 0.16500 119244.000000
2370 14831 1 0.16500 119244.000000
2371 11977 1 0.16500 119244.000000
2371 14442 1 0.16500 119244.000000
2372 11977 1 0.16500 119244.000000
2372 13252 1 0.16500 119244.000000
2373 11977 1 0.16500 119244.000000
2373 15776 1 0.16500 119244.000000
2374 11978 1 0.16500 119244.000000
2374 14797 1 0.16500 119244.000000
2375 11978 1 0.16500 119244.000000
2375 12557 1 0.16500 119244.000000
2376 11978 1 0.16500 119244.000000
2376 14800 1 0.16500 119244.000000
2377 11978 1 0.16500 119244.000000
2377 13743 1 0.16500 119244.000000
2378 11979 1 0.16500 119244.000000
2378 11983 1 0.16500 119244.000000
2379 11979 1 0.16500 119244.000000
2379 14253 1 0.16500 119244.000000
2380 11979 1 0.16500 119244.000000
2380 13236 1 0.16500 119244.000000
2381 11979 1 0.16500 119244.000000
2381 13287 1 0.16500 119244.000000
2382 11980 1 0.16500 119244.000000
2382 14682 1 0.16500 119244.000000
2383 11980 1 0.16500 119244.000000
2383 14304 1 0.16500 119244.000000
2384 11980 1 0.16500 119244.000000
2384 16219 1 0.16500 119244.000000
2385 11980 1 0.16500 119244.000000
2385 13026 1 0.16500 119244.000000
2386 11981 1 0.16500 119244.000000
2386 14887 1 0.16500 119244.000000
2387 11981 1 0.16500 119244.000000
2387 14104 1 0.16500 119244.000000
2388 11981 1 0.16500 119244.000000
2388 12859 1 0.16500 119244.000000
2389 11981 1 0.16500 119244.000000
2389 16501 1 0.16500 119244.000000
2390 11982 1 0.16500 119244.000000
2390 15621 1 0.16500 119244.000000
2391 11982 1 0.16500 119244.000000
2391 14149 1 0.16500 119244.000000
2392 11982 1 0.16500 119244.000000
2392 15103 1 0.16500 119244.000000
2393 11982 1 0.16500 119244.000000
2393 14831 1 0.16500 119244.000000
2394 11983 1 0.16500 119244.000000
2394 13053 1 0.16500 119244.000000
2395 11983 1 0.16500 119244.000000
2395 16367 1 0.16500 119244.000000
2396 11983 1 0.16500 119244.000000
2396 12192 1 0.16500 119244.000000
2397 15818 1 0.16500 119244.000000
2397 16367 1 0.16500 119244.000000
2398 11984 1 0.16500 119244.000000
2398 15887 1 0.16500 119244.000000
2399 11984 1 0.16500 119244.000000
2399 15164 1 0.16500 119244.000000
2400 11984 1 0.16500 119244.000000
2400 12022 1 0.16500 119244.000000
2401 14033 1 0.16500 119244.000000
2401 15887 1 0.16500 119244.000000
2402 11985 1 0.16500 119244.000000
2402 15976 1 0.16500 119244.000000
2403 11985 1 0.16500 119244.000000
2403 14789 1 0.16500 119244.000000
2404 11985 1 0.16500 119244.000000
2404 12194 1 0.16500 119244.000000
2405 11985 1 0.16500 119244.000000
2405 12727 1 0.16500 119244.000000
2406 11986 1 0.16500 119244.000000
2406 16349 1 0.16500 119244.000000
2407 11986 1 0.16500 119244.000000
2407 15736 1 0.16500 119244.000000
2408 11986 1 0.16500 119244.000000
2408 13288 1 0.16500 119244.000000
2409 11986 1 0.16500 119244.000000
2409 15952 1 0.16500 119244.000000
2410 11987 1 0.16500 119244.000000
2410 13442 1 0.16500 119244.000000
2411 11987 1 0.16500 119244.000000
2411 15772 1 0.16500 119244.000000
2412 11987 1 0.16500 119244.000000
2412 13896 1 0.16500 119244.000000
2413 11988 1 0.16500 119244.000000
2413 16448 1 0.16500 119244.000000
2414 11988 1 0.16500 119244.000000
2414 15233 1 0.16500 119244.000000
2415 11988 1 0.16500 119244.000000
2415 15091 1 0.16500 119244.000000
2416 11988 1 0.16500 119244.000000
2416 14822 1 0.16500 119244.000000
2417 11989 1 0.16500 119244.000000
2417 12956 1 0.16500 119244.000000
2418 11989 1 0.16500 119244.000000
2418 15402 1 0.16500 119244.000000
2419 11989 1 0.16500 119244.000000
2419 21591 1 0.16500 119244.000000
2420 11989 1 0.16500 119244.000000
2420 20598 1 0.16500 119244.000000
2421 11990 1 0.16500 119244.000000
2421 17566 1 0.16500 119244.000000
2422 11990 1 0.16500 119244.000000
2422 13945 1 0.16500 119244.000000
2423 11990 1 0.16500 119244.000000
2423 14096 1 0.16500 119244.000000
2424 11990 1 0.16500 119244.000000
2424 15508 1 0.16500 119244.000000
2425 11991 1 0.16500 119244.000000
2425 14550 1 0.16500 119244.000000
2426 11991 1 0.16500 119244.000000
2426 12699 1 0.16500 119244.000000
2427 11991 1 0.16500 119244.000000
2427 15574 1 0.16500 119244.000000
2428 11991 1 0.16500 119244.000000
2428 12061 1 0.16500 119244.000000
2429 11703 1 0.16500 119244.000000
2429 18882 1 0.16500 119244.000000
2430 16001 1 0.16500 119244.000000
2430 18882 1 0.16500 119244.000000
2431 18894 1 0.16500 119244.000000
2431 20406 1 0.16500 119244.000000
2432 11441 1 0.16500 119244.000000
2432 13551 1 0.16500 119244.000000
2433 13551 1 0.16500 119244.000000
2433 18894 1 0.16500 119244.000000
2434 11992 1 0.16500 119244.000000
2434 14513 1 0.16500 119244.000000
2435 11992 1 0.16500 119244.000000
2435 16221 1 0.16500 119244.000000
2436 11992 1 0.16500 119244.000000
2436 12326 1 0.16500 119244.000000
2437 11992 1 0.16500 119244.000000
2437 16155 1 0.16500 119244.000000
2438 11993 1 0.16500 119244.000000
2438 14286 1 0.16500 119244.000000
2439 11993 1 0.16500 119244.000000
2439 15178 1 0.16500 119244.000000
2440 11993 1 0.16500 119244.000000
2440 14857 1 0.16500 119244.000000
2441 11993 1 0.16500 119244.000000
2441 13882 1 0.16500 119244.000000
2442 11396 1 0.16500 119244.000000
2442 11994 1 0.16500 119244.000000
2443 11994 1 0.16500 119244.000000
2443 20070 1 0.16500 119244.000000
2444 11994 1 0.16500 119244.000000
2444 13231 1 0.16500 119244.000000
2445 11994 1 0.16500 119244.000000
2445 14035 1 0.16500 119244.000000
2446 11995 1 0.16500 119244.000000
2446 12310 1 0.16500 119244.000000
2447 11995 1 0.16500 119244.000000
2447 12688 1 0.16500 119244.000000
2448 11995 1 0.16500 119244.000000
2448 14478 1 0.16500 119244.000000
2449 11995 1 0.16500 119244.000000
2449 13832 1 0.16500 119244.000000
2450 14634 1 0.16500 119244.000000
2450 18906 1 0.16500 119244.000000
2451 18906 1 0.16500 119244.000000
2451 20550 1 0.16500 119244.000000
2452 18906 1 0.16500 119244.000000
2452 22284 1 0.16500 119244.000000
2453 11996 1 0.16500 119244.000000
2453 12476 1 0.16500 119244.000000
2454 11996 1 0.16500 119244.000000
2454 12607 1 0.16500 119244.000000
2455 11996 1 0.16500 119244.000000
2455 21810 1 0.16500 119244.000000
2456 16091 1 0.16500 119244.000000
2456 18918 1 0.16500 119244.000000
2457 16154 1 0.16500 119244.000000
2457 18918 1 0.16500 119244.000000
2458 11997 1 0.16500 119244.000000
2458 14668 1 0.16500 119244.000000
2459 11997 1 0.16500 119244.000000
2459 15222 1 0.16500 119244.000000
2460 11997 1 0.16500 119244.000000
2460 12276 1 0.16500 119244.000000
2461 11997 1 0.16500 119244.000000
2461 16210 1 0.16500 119244.000000
2462 16209 1 0.16500 119244.000000
2462 18930 1 0.16500 119244.000000
2463 12487 1 0.16500 119244.000000
2463 18930 1 0.16500 119244.000000
2464 11998 1 0.16500 119244.000000
2464 13521 1 0.16500 119244.000000
2465 11998 1 0.16500 119244.000000
2465 13842 1 0.16500 119244.000000
2466 11998 1 0.16500 119244.000000
2466 16365 1 0.16500 119244.000000
2467 11998 1 0.16500 119244.000000
2467 13616 1 0.16500 119244.000000
2468 11999 1 0.16500 119244.000000
2468 12013 1 0.16500 119244.000000
2469 11999 1 0.16500 119244.000000
2469 21834 1 0.16500 119244.000000
2470 11999 1 0.16500 119244.000000
2470 13389 1 0.16500 119244.000000
2471 11999 1 0.16500 119244.000000
2471 14921 1 0.16500 119244.000000
2472 12000 1 0.16500 119244.000000
2472 15198 1 0.16500 119244.000000
2473 12000 1 0.16500 119244.000000
2473 14422 1 0.16500 119244.000000
2474 12000 1 0.16500 119244.000000
2474 15120 1 0.16500 119244.000000
2475 12000 1 0.16500 119244.000000
2475 12903 1 0.16500 119244.000000
2476 12001 1 0.16500 119244.000000
2476 15581 1 0.16500 119244.000000
2477 12001 1 0.16500 119244.000000
2477 16375 1 0.16500 119244.000000
2478 12001 1 0.16500 119244.000000
2478 15369 1 0.16500 119244.000000
2479 12377 1 0.16500 119244.000000
2479 16375 1 0.16500 119244.000000
2480 12002 1 0.16500 119244.000000
2480 12980 1 0.16500 119244.000000
2481 12002 1 0.16500 119244.000000
2481 16171 1 0.16500 119244.000000
2482 12002 1 0.16500 119244.000000
2482 12659 1 0.16500 119244.000000
2483 12566 1 0.16500 119244.000000
2483 18942 1 0.16500 119244.000000
2484 13871 1 0.16500 119244.000000
2484 18942 1 0.16500 119244.000000
2485 14583 1 0.16500 119244.000000
2485 18942 1 0.16500 119244.000000
2486 12003 1 0.16500 119244.000000
2486 15491 1 0.16500 119244.000000
2487 12003 1 0.16500 119244.000000
2487 12569 1 0.16500 119244.000000
2488 12003 1 0.16500 119244.000000
2488 12146 1 0.16500 119244.000000
2489 12003 1 0.16500 119244.000000
2489 14347 1 0.16500 119244.000000
2490 21507 1 0.16500 119244.000000
2490 22140 1 0.16500 119244.000000
2491 15001 1 0.16500 119244.000000
2491 15706 1 0.16500 119244.000000
2492 15001 1 0.16500 119244.000000
2492 21507 1 0.16500 119244.000000
2493 18954 1 0.16500 119244.000000
2493 22122 1 0.16500 119244.000000
2494 16726 1 0.16500 119244.000000
2494 18954 1 0.16500 119244.000000
2495 18954 1 0.16500 119244.000000
2495 21150 1 0.16500 119244.000000
2496 12004 1 0.16500 119244.000000
2496 12039 1 0.16500 119244.000000
2497 12004 1 0.16500 119244.000000
2497 12642 1 0.16500 119244.000000
2498 12004 1 0.16500 119244.000000
2498 17356 1 0.16500 119244.000000
2499 12004 1 0.16500 119244.000000
2499 21867 1 0.16500 119244.000000
2500 18966 1 0.16500 119244.000000
2500 22257 1 0.16500 119244.000000
2501 13608 1 0.16500 119244.000000
2501 18966 1 0.16500 119244.000000
2502 12005 1 0.16500 119244.000000
2502 14862 1 0.16500 119244.000000
2503 12005 1 0.16500 119244.000000
2503 14405 1 0.16500 119244.000000
2504 12005 1 0.16500 119244.000000
2504 12151 1 0.16500 119244.000000
2505 14352 1 0.16500 119244.000000
2505 18978 1 0.16500 119244.000000
2506 12125 1 0.16500 119244.000000
2506 18978 1 0.16500 119244.000000
2507 14352 1 0.16500 119244.000000
2507 15717 1 0.16500 119244.000000
2508 12006 1 0.16500 119244.000000
2508 14506 1 0.16500 119244.000000
2509 12006 1 0.16500 119244.000000
2509 15573 1 0.16500 119244.000000
2510 12006 1 0.16500 119244.000000
2510 13383 1 0.16500 119244.000000
2511 12006 1 0.16500 119244.000000
2511 16292 1 0.16500 119244.000000
2512 12007 1 0.16500 119244.000000
2512 14055 1 0.16500 119244.000000
2513 12007 1 0.16500 119244.000000
2513 12268 1 0.16500 119244.000000
2514 12007 1 0.16500 119244.000000
2514 12843 1 0.16500 119244.000000
2515 12007 1 0.16500 119244.000000
2515 13229 1 0.16500 119244.000000
2516 12008 1 0.16500 119244.000000
2516 15657 1 0.16500 119244.000000
2517 12008 1 0.16500 119244.000000
2517 19854 1 0.16500 119244.000000
2518 12008 1 0.16500 119244.000000
2518 15972 1 0.16500 119244.000000
2519 12008 1 0.16500 119244.000000
2519 15876 1 0.16500 119244.000000
2520 12009 1 0.16500 119244.000000
2520 16294 1 0.16500 119244.000000
2521 12009 1 0.16500 119244.000000
2521 13972 1 0.16500 119244.000000
2522 12009 1 0.16500 119244.000000
2522 16128 1 0.16500 119244.000000
2523 12009 1 0.16500 119244.000000
2523 15792 1 0.16500 119244.000000
2524 12010 1 0.16500 119244.000000
2524 12359 1 0.16500 119244.000000
2525 12010 1 0.16500 119244.000000
2525 14339 1 0.16500 119244.000000
2526 12010 1 0.16500 119244.000000
2526 12417 1 0.16500 119244.000000
2527 12010 1 0.16500 119244.000000
2527 12866 1 0.16500 119244.000000
2528 12011 1 0.16500 119244.000000
2528 15126 1 0.16500 119244.000000
2529 12011 1 0.16500 119244.000000
2529 12547 1 0.16500 119244.000000
2530 12011 1 0.16500 119244.000000
2530 14062 1 0.16500 119244.000000
2531 12011 1 0.16500 119244.000000
2531 12436 1 0.16500 119244.000000
2532 12012 1 0.16500 119244.000000
2532 15085 1 0.16500 119244.000000
2533 12012 1 0.16500 119244.000000
2533 14471 1 0.16500 119244.000000
2534 12012 1 0.16500 119244.000000
2534 14222 1 0.16500 119244.000000
2535 12012 1 0.16500 119244.000000
2535 15073 1 0.16500 119244.000000
2536 12013 1 0.16500 119244.000000
2536 15957 1 0.16500 119244.000000
2537 12013 1 0.16500 119244.000000
2537 15618 1 0.16500 119244.000000
2538 12013 1 0.16500 119244.000000
2538 16332 1 0.16500 119244.000000
2539 12014 1 0.16500 119244.000000
2539 16045 1 0.16500 119244.000000
2540 12014 1 0.16500 119244.000000
2540 21234 1 0.16500 119244.000000
2541 12014 1 0.16500 119244.000000
2541 13594 1 0.16500 119244.000000
2542 12015 1 0.16500 119244.000000
2542 12616 1 0.16500 119244.000000
2543 12015 1 0.16500 119244.000000
2543 15258 1 0.16500 119244.000000
2544 12015 1 0.16500 119244.000000
2544 15333 1 0.16500 119244.000000
2545 12016 1 0.16500 119244.000000
2545 14368 1 0.16500 119244.000000
2546 12016 1 0.16500 119244.000000
2546 15800 1 0.16500 119244.000000
2547 12016 1 0.16500 119244.000000
2547 13582 1 0.16500 119244.000000
2548 12016 1 0.16500 119244.000000
2548 15676 1 0.16500 119244.000000
2549 12017 1 0.16500 119244.000000
2549 14769 1 0.16500 119244.000000
2550 12017 1 0.16500 119244.000000
2550 12107 1 0.16500 119244.000000
2551 12017 1 0.16500 119244.000000
2551 13422 1 0.16500 119244.000000
2552 12017 1 0.16500 119244.000000
2552 15007 1 0.16500 119244.000000
2553 12018 1 0.16500 119244.000000
2553 13303 1 0.16500 119244.000000
2554 12018 1 0.16500 119244.000000
2554 13353 1 0.16500 119244.000000
2555 12018 1 0.16500 119244.000000
2555 14942 1 0.16500 119244.000000
2556 12018 1 0.16500 119244.000000
2556 16435 1 0.16500 119244.000000
2557 16280 1 0.16500 119244.000000
2557 20934 1 0.16500 119244.000000
2558 15591 1 0.16500 119244.000000
2558 18990 1 0.16500 119244.000000
2559 12113 1 0.16500 119244.000000
2559 18990 1 0.16500 119244.000000
2560 18990 1 0.16500 119244.000000
2560 20934 1 0.16500 119244.000000
2561 12019 1 0.16500 119244.000000
2561 12627 1 0.16500 119244.000000
2562 12019 1 0.16500 119244.000000
2562 13585 1 0.16500 119244.000000
2563 12019 1 0.16500 119244.000000
2563 13252 1 0.16500 119244.000000
2564 12020 1 0.16500 119244.000000
2564 16108 1 0.16500 119244.000000
2565 12020 1 0.16500 119244.000000
2565 12652 1 0.16500 119244.000000
2566 12020 1 0.16500 119244.000000
2566 14867 1 0.16500 119244.000000
2567 12021 1 0.16500 119244.000000
2567 13518 1 0.16500 119244.000000
2568 12021 1 0.16500 119244.000000
2568 22026 1 0.16500 119244.000000
2569 12021 1 0.16500 119244.000000
2569 15593 1 0.16500 119244.000000
2570 12021 1 0.16500 119244.000000
2570 14541 1 0.16500 119244.000000
2571 12022 1 0.16500 119244.000000
2571 15575 1 0.16500 119244.000000
2572 12022 1 0.16500 119244.000000
2572 12358 1 0.16500 119244.000000
2573 12358 1 0.16500 119244.000000
2573 15026 1 0.16500 119244.000000
2574 11551 1 0.16500 119244.000000
2574 12023 1 0.16500 119244.000000
2575 12023 1 0.16500 119244.000000
2575 13340 1 0.16500 119244.000000
2576 12023 1 0.16500 119244.000000
2576 13756 1 0.16500 119244.000000
2577 12023 1 0.16500 119244.000000
2577 12907 1 0.16500 119244.000000
2578 12024 1 0.16500 119244.000000
2578 15143 1 0.16500 119244.000000
2579 12024 1 0.16500 119244.000000
2579 14247 1 0.16500 119244.000000
2580 12024 1 0.16500 119244.000000
2580 13611 1 0.16500 119244.000000
2581 12025 1 0.16500 119244.000000
2581 13838 1 0.16500 119244.000000
2582 12025 1 0.16500 119244.000000
2582 15017 1 0.16500 119244.000000
2583 12059 1 0.16500 119244.000000
2583 15216 1 0.16500 119244.000000
2584 12026 1 0.16500 119244.000000
2584 12324 1 0.16500 119244.000000
2585 12026 1 0.16500 119244.000000
2585 15216 1 0.16500 119244.000000
2586 12026 1 0.16500 119244.000000
2586 13032 1 0.16500 119244.000000
2587 19002 1 0.16500 119244.000000
2587 21630 1 0.16500 119244.000000
2588 15419 1 0.16500 119244.000000
2588 19002 1 0.16500 119244.000000
2589 12027 1 0.16500 119244.000000
2589 13579 1 0.16500 119244.000000
2590 12027 1 0.16500 119244.000000
2590 12486 1 0.16500 119244.000000
2591 12027 1 0.16500 119244.000000
2591 17566 1 0.16500 119244.000000
2592 12028 1 0.16500 119244.000000
2592 12789 1 0.16500 119244.000000
2593 12028 1 0.16500 119244.000000
2593 14430 1 0.16500 119244.000000
2594 12028 1 0.16500 119244.000000
2594 12644 1 0.16500 119244.000000
2595 12029 1 0.16500 119244.000000
2595 16403 1 0.16500 119244.000000
2596 12029 1 0.16500 119244.000000
2596 14720 1 0.16500 119244.000000
2597 12029 1 0.16500 119244.000000
2597 12157 1 0.16500 119244.000000
2598 12030 1 0.16500 119244.000000
2598 16416 1 0.16500 119244.000000
2599 12030 1 0.16500 119244.000000
2599 15978 1 0.16500 119244.000000
2600 12030 1 0.16500 119244.000000
2600 13340 1 0.16500 119244.000000
2601 12030 1 0.16500 119244.000000
2601 12745 1 0.16500 119244.000000
2602 12031 1 0.16500 119244.000000
2602 15898 1 0.16500 119244.000000
2603 12031 1 0.16500 119244.000000
2603 14739 1 0.16500 119244.000000
2604 12032 1 0.16500 119244.000000
2604 19050 1 0.16500 119244.000000
2605 16908 1 0.16500 119244.000000
2605 19050 1 0.16500 119244.000000
2606 12033 1 0.16500 119244.000000
2606 16465 1 0.16500 119244.000000
2607 14747 1 0.16500 119244.000000
2607 16465 1 0.16500 119244.000000
2608 12033 1 0.16500 119244.000000
2608 16383 1 0.16500 119244.000000
2609 12033 1 0.16500 119244.000000
2609 15642 1 0.16500 119244.000000
2610 12034 1 0.16500 119244.000000
2610 16182 1 0.16500 119244.000000
2611 12034 1 0.16500 119244.000000
2611 12995 1 0.16500 119244.000000
2612 12034 1 0.16500 119244.000000
2612 13829 1 0.16500 119244.000000
2613 12035 1 0.16500 119244.000000
2613 12634 1 0.16500 119244.000000
2614 12035 1 0.16500 119244.000000
2614 12597 1 0.16500 119244.000000
2615 12035 1 0.16500 119244.000000
2615 13172 1 0.16500 119244.000000
2616 12036 1 0.16500 119244.000000
2616 13130 1 0.16500 119244.000000
2617 12036 1 0.16500 119244.000000
2617 13394 1 0.16500 119244.000000
2618 12036 1 0.16500 119244.000000
2618 14460 1 0.16500 119244.000000
2619 12037 1 0.16500 119244.000000
2619 16340 1 0.16500 119244.000000
2620 12037 1 0.16500 119244.000000
2620 20802 1 0.16500 119244.000000
2621 12037 1 0.16500 119244.000000
2621 16024 1 0.16500 119244.000000
2622 12037 1 0.16500 119244.000000
2622 14133 1 0.16500 119244.000000
2623 12126 1 0.16500 119244.000000
2623 19014 1 0.16500 119244.000000
2624 17622 1 0.16500 119244.000000
2624 19014 1 0.16500 119244.000000
2625 12883 1 0.16500 119244.000000
2625 13307 1 0.16500 119244.000000
2626 12038 1 0.16500 119244.000000
2626 15164 1 0.16500 119244.000000
2627 12038 1 0.16500 119244.000000
2627 13307 1 0.16500 119244.000000
2628 12038 1 0.16500 119244.000000
2628 13269 1 0.16500 119244.000000
2629 12039 1 0.16500 119244.000000
2629 15846 1 0.16500 119244.000000
2630 12039 1 0.16500 119244.000000
2630 15138 1 0.16500 119244.000000
2631 12039 1 0.16500 119244.000000
2631 13063 1 0.16500 119244.000000
2632 12040 1 0.16500 119244.000000
2632 15889 1 0.16500 119244.000000
2633 12040 1 0.16500 119244.000000
2633 19878 1 0.16500 119244.000000
2634 12040 1 0.16500 119244.000000
2634 16377 1 0.16500 119244.000000
2635 12040 1 0.16500 119244.000000
2635 15647 1 0.16500 119244.000000
2636 12041 1 0.16500 119244.000000
2636 15716 1 0.16500 119244.000000
2637 12041 1 0.16500 119244.000000
2637 13380 1 0.16500 119244.000000
2638 12041 1 0.16500 119244.000000
2638 15258 1 0.16500 119244.000000
2639 12041 1 0.16500 119244.000000
2639 15907 1 0.16500 119244.000000
2640 12042 1 0.16500 119244.000000
2640 13330 1 0.16500 119244.000000
2641 12042 1 0.16500 119244.000000
2641 15707 1 0.16500 119244.000000
2642 12042 1 0.16500 119244.000000
2642 13767 1 0.16500 119244.000000
2643 12042 1 0.16500 119244.000000
2643 13289 1 0.16500 119244.000000
2644 12043 1 0.16500 119244.000000
2644 16512 1 0.16500 119244.000000
2645 12043 1 0.16500 119244.000000
2645 13372 1 0.16500 119244.000000
2646 12043 1 0.16500 119244.000000
2646 12661 1 0.16500 119244.000000
2647 12044 1 0.16500 119244.000000
2647 13412 1 0.16500 119244.000000
2648 12044 1 0.16500 119244.000000
2648 16322 1 0.16500 119244.000000
2649 15671 1 0.16500 119244.000000
2649 16322 1 0.16500 119244.000000
2650 12044 1 0.16500 119244.000000
2650 14256 1 0.16500 119244.000000
2651 12045 1 0.16500 119244.000000
2651 21474 1 0.16500 119244.000000
2652 12045 1 0.16500 119244.000000
2652 22347 1 0.16500 119244.000000
2653 12045 1 0.16500 119244.000000
2653 16459 1 0.16500 119244.000000
2654 12046 1 0.16500 119244.000000
2654 13535 1 0.16500 119244.000000
2655 12046 1 0.16500 119244.000000
2655 14139 1 0.16500 119244.000000
2656 12046 1 0.16500 119244.000000
2656 14789 1 0.16500 119244.000000
2657 12046 1 0.16500 119244.000000
2657 16412 1 0.16500 119244.000000
2658 12047 1 0.16500 119244.000000
2658 14847 1 0.16500 119244.000000
2659 12047 1 0.16500 119244.000000
2659 12182 1 0.16500 119244.000000
2660 12048 1 0.16500 119244.000000
2660 13399 1 0.16500 119244.000000
2661 12048 1 0.16500 119244.000000
2661 13368 1 0.16500 119244.000000
2662 12048 1 0.16500 119244.000000
2662 13668 1 0.16500 119244.000000
2663 12048 1 0.16500 119244.000000
2663 16508 1 0.16500 119244.000000
2664 12049 1 0.16500 119244.000000
2664 14440 1 0.16500 119244.000000
2665 12049 1 0.16500 119244.000000
2665 13855 1 0.16500 119244.000000
2666 12050 1 0.16500 119244.000000
2666 14267 1 0.16500 119244.000000
2667 12050 1 0.16500 119244.000000
2667 21942 1 0.16500 119244.000000
2668 12051 1 0.16500 119244.000000
2668 14506 1 0.16500 119244.000000
2669 12051 1 0.16500 119244.000000
2669 14421 1 0.16500 119244.000000
2670 12051 1 0.16500 119244.000000
2670 12874 1 0.16500 119244.000000
2671 12051 1 0.16500 119244.000000
2671 12271 1 0.16500 119244.000000
2672 12052 1 0.16500 119244.000000
2672 13221 1 0.16500 119244.000000
2673 12052 1 0.16500 119244.000000
2673 13396 1 0.16500 119244.000000
2674 12052 1 0.16500 119244.000000
2674 14147 1 0.16500 119244.000000
2675 12052 1 0.16500 119244.000000
2675 12170 1 0.16500 119244.000000
2676 12053 1 0.16500 119244.000000
2676 12700 1 0.16500 119244.000000
2677 12053 1 0.16500 119244.000000
2677 15036 1 0.16500 119244.000000
2678 12053 1 0.16500 119244.000000
2678 16199 1 0.16500 119244.000000
2679 12053 1 0.16500 119244.000000
2679 13932 1 0.16500 119244.000000
2680 12054 1 0.16500 119244.000000
2680 13414 1 0.16500 119244.000000
2681 12054 1 0.16500 119244.000000
2681 13498 1 0.16500 119244.000000
2682 12054 1 0.16500 119244.000000
2682 15703 1 0.16500 119244.000000
2683 14647 1 0.16500 119244.000000
2683 15703 1 0.16500 119244.000000
2684 12055 1 0.16500 119244.000000
2684 19530 1 0.16500 119244.000000
2685 12055 1 0.16500 119244.000000
2685 12636 1 0.16500 119244.000000
2686 12055 1 0.16500 119244.000000
2686 13213 1 0.16500 119244.000000
2687 12055 1 0.16500 119244.000000
2687 16085 1 0.16500 119244.000000
2688 12056 1 0.16500 119244.000000
2688 15669 1 0.16500 119244.000000
2689 12056 1 0.16500 119244.000000
2689 15702 1 0.16500 119244.000000
2690 12056 1 0.16500 119244.000000
2690 21474 1 0.16500 119244.000000
2691 12056 1 0.16500 119244.000000
2691 13883 1 0.16500 119244.000000
2692 12057 1 0.16500 119244.000000
2692 15288 1 0.16500 119244.000000
2693 12057 1 0.16500 119244.000000
2693 14225 1 0.16500 119244.000000
2694 12057 1 0.16500 119244.000000
2694 16241 1 0.16500 119244.000000
2695 12057 1 0.16500 119244.000000
2695 12855 1 0.16500 119244.000000
2696 12058 1 0.16500 119244.000000
2696 13244 1 0.16500 119244.000000
2697 12058 1 0.16500 119244.000000
2697 12349 1 0.16500 119244.000000
2698 12058 1 0.16500 119244.000000
2698 14892 1 0.16500 119244.000000
2699 12059 1 0.16500 119244.000000
2699 15399 1 0.16500 119244.000000
2700 12059 1 0.16500 119244.000000
2700 21912 1 0.16500 119244.000000
2701 12059 1 0.16500 119244.000000
2701 13559 1 0.16500 119244.000000
2702 12060 1 0.16500 119244.000000
2702 15668 1 0.16500 119244.000000
2703 12060 1 0.16500 119244.000000
2703 14295 1 0.16500 119244.000000
2704 12060 1 0.16500 119244.000000
2704 13537 1 0.16500 119244.000000
2705 12060 1 0.16500 119244.000000
2705 14248 1 0.16500 119244.000000
2706 12061 1 0.16500 119244.000000
2706 13247 1 0.16500 119244.000000
2707 12061 1 0.16500 119244.000000
2707 12221 1 0.16500 119244.000000
2708 12061 1 0.16500 119244.000000
2708 16154 1 0.16500 119244.000000
2709 12062 1 0.16500 119244.000000
2709 13223 1 0.16500 119244.000000
2710 12062 1 0.16500 119244.000000
2710 16270 1 0.16500 119244.000000
2711 12062 1 0.16500 119244.000000
2711 16300 1 0.16500 119244.000000
2712 12062 1 0.16500 119244.000000
2712 13103 1 0.16500 119244.000000
2713 12063 1 0.16500 119244.000000
2713 13798 1 0.16500 119244.000000
2714 12063 1 0.16500 119244.000000
2714 13561 1 0.16500 119244.000000
2715 12063 1 0.16500 119244.000000
2715 12453 1 0.16500 119244.000000
2716 12063 1 0.16500 119244.000000
2716 20382 1 0.16500 119244.000000
2717 12064 1 0.16500 119244.000000
2717 16411 1 0.16500 119244.000000
2718 12064 1 0.16500 119244.000000
2718 14624 1 0.16500 119244.000000
2719 12064 1 0.16500 119244.000000
2719 13154 1 0.16500 119244.000000
2720 12064 1 0.16500 119244.000000
2720 14897 1 0.16500 119244.000000
2721 12065 1 0.16500 119244.000000
2721 16518 1 0.16500 119244.000000
2722 12065 1 0.16500 119244.000000
2722 14492 1 0.16500 119244.000000
2723 12065 1 0.16500 119244.000000
2723 12381 1 0.16500 119244.000000
2724 12065 1 0.16500 119244.000000
2724 16036 1 0.16500 119244.000000
2725 12066 1 0.16500 119244.000000
2725 16445 1 0.16500 119244.000000
2726 12066 1 0.16500 119244.000000
2726 13651 1 0.16500 119244.000000
2727 12066 1 0.16500 119244.000000
2727 15255 1 0.16500 119244.000000
2728 12066 1 0.16500 119244.000000
2728 13388 1 0.16500 119244.000000
2729 15549 1 0.16500 119244.000000
2729 19026 1 0.16500 119244.000000
2730 19026 1 0.16500 119244.000000
2730 20982 1 0.16500 119244.000000
2731 13194 1 0.16500 119244.000000
2731 19026 1 0.16500 119244.000000
2732 12067 1 0.16500 119244.000000
2732 12671 1 0.16500 119244.000000
2733 12067 1 0.16500 119244.000000
2733 16810 1 0.16500 119244.000000
2734 12067 1 0.16500 119244.000000
2734 14603 1 0.16500 119244.000000
2735 12068 1 0.16500 119244.000000
2735 13147 1 0.16500 119244.000000
2736 12068 1 0.16500 119244.000000
2736 13533 1 0.16500 119244.000000
2737 12068 1 0.16500 119244.000000
2737 15926 1 0.16500 119244.000000
2738 12069 1 0.16500 119244.000000
2738 12280 1 0.16500 119244.000000
2739 12069 1 0.16500 119244.000000
2739 13646 1 0.16500 119244.000000
2740 12069 1 0.16500 119244.000000
2740 14807 1 0.16500 119244.000000
2741 12069 1 0.16500 119244.000000
2741 14773 1 0.16500 119244.000000
2742 12070 1 0.16500 119244.000000
2742 16003 1 0.16500 119244.000000
2743 12070 1 0.16500 119244.000000
2743 16476 1 0.16500 119244.000000
2744 12070 1 0.16500 119244.000000
2744 15657 1 0.16500 119244.000000
2745 12070 1 0.16500 119244.000000
2745 12627 1 0.16500 119244.000000
2746 12071 1 0.16500 119244.000000
2746 21525 1 0.16500 119244.000000
2747 12071 1 0.16500 119244.000000
2747 21930 1 0.16500 119244.000000
2748 12071 1 0.16500 119244.000000
2748 16462 1 0.16500 119244.000000
2749 12072 1 0.16500 119244.000000
2749 13016 1 0.16500 119244.000000
2750 12072 1 0.16500 119244.000000
2750 14391 1 0.16500 119244.000000
2751 12072 1 0.16500 119244.000000
2751 15715 1 0.16500 119244.000000
2752 12072 1 0.16500 119244.000000
2752 12693 1 0.16500 119244.000000
2753 12073 1 0.16500 119244.000000
2753 14087 1 0.16500 119244.000000
2754 14588 1 0.16500 119244.000000
2754 15639 1 0.16500 119244.000000
2755 12073 1 0.16500 119244.000000
2755 14633 1 0.16500 119244.000000
2756 12073 1 0.16500 119244.000000
2756 14588 1 0.16500 119244.000000
2757 12074 1 0.16500 119244.000000
2757 12470 1 0.16500 119244.000000
2758 12074 1 0.16500 119244.000000
2758 13110 1 0.16500 119244.000000
2759 12074 1 0.16500 119244.000000
2759 13624 1 0.16500 119244.000000
2760 12074 1 0.16500 119244.000000
2760 13392 1 0.16500 119244.000000
2761 12075 1 0.16500 119244.000000
2761 15190 1 0.16500 119244.000000
2762 12075 1 0.16500 119244.000000
2762 14567 1 0.16500 119244.000000
2763 12075 1 0.16500 119244.000000
2763 14172 1 0.16500 119244.000000
2764 12076 1 0.16500 119244.000000
2764 12827 1 0.16500 119244.000000
2765 12076 1 0.16500 119244.000000
2765 15424 1 0.16500 119244.000000
2766 12076 1 0.16500 119244.000000
2766 14015 1 0.16500 119244.000000
2767 12076 1 0.16500 119244.000000
2767 14473 1 0.16500 119244.000000
2768 12077 1 0.16500 119244.000000
2768 15852 1 0.16500 119244.000000
2769 12077 1 0.16500 119244.000000
2769 15777 1 0.16500 119244.000000
2770 12077 1 0.16500 119244.000000
2770 12122 1 0.16500 119244.000000
2771 12078 1 0.16500 119244.000000
2771 16454 1 0.16500 119244.000000
2772 13688 1 0.16500 119244.000000
2772 14152 1 0.16500 119244.000000
2773 12078 1 0.16500 119244.000000
2773 13688 1 0.16500 119244.000000
2774 12078 1 0.16500 119244.000000
2774 14967 1 0.16500 119244.000000
2775 12079 1 0.16500 119244.000000
2775 14956 1 0.16500 119244.000000
2776 12079 1 0.16500 119244.000000
2776 15477 1 0.16500 119244.000000
2777 12080 1 0.16500 119244.000000
2777 15473 1 0.16500 119244.000000
2778 12080 1 0.16500 119244.000000
2778 12550 1 0.16500 119244.000000
2779 12080 1 0.16500 119244.000000
2779 15666 1 0.16500 119244.000000
2780 12081 1 0.16500 119244.000000
2780 22389 1 0.16500 119244.000000
2781 12081 1 0.16500 119244.000000
2781 13348 1 0.16500 119244.000000
2782 12081 1 0.16500 119244.000000
2782 14386 1 0.16500 119244.000000
2783 12081 1 0.16500 119244.000000
2783 14480 1 0.16500 119244.000000
2784 12082 1 0.16500 119244.000000
2784 15606 1 0.16500 119244.000000
2785 12082 1 0.16500 119244.000000
2785 14251 1 0.16500 119244.000000
2786 12082 1 0.16500 119244.000000
2786 14167 1 0.16500 119244.000000
2787 12082 1 0.16500 119244.000000
2787 13266 1 0.16500 119244.000000
2788 12083 1 0.16500 119244.000000
2788 13956 1 0.16500 119244.000000
2789 12083 1 0.16500 119244.000000
2789 12816 1 0.16500 119244.000000
2790 12083 1 0.16500 119244.000000
2790 15769 1 0.16500 119244.000000
2791 12084 1 0.16500 119244.000000
2791 12673 1 0.16500 119244.000000
2792 12084 1 0.16500 119244.000000
2792 14002 1 0.16500 119244.000000
2793 12673 1 0.16500 119244.000000
2793 12987 1 0.16500 119244.000000
2794 12085 1 0.16500 119244.000000
2794 16520 1 0.16500 119244.000000
2795 12085 1 0.16500 119244.000000
2795 15450 1 0.16500 119244.000000
2796 12085 1 0.16500 119244.000000
2796 14913 1 0.16500 119244.000000
2797 13973 1 0.16500 119244.000000
2797 15450 1 0.16500 119244.000000
2798 12086 1 0.16500 119244.000000
2798 16140 1 0.16500 119244.000000
2799 12086 1 0.16500 119244.000000
2799 15769 1 0.16500 119244.000000
2800 12087 1 0.16500 119244.000000
2800 14264 1 0.16500 119244.000000
2801 12087 1 0.16500 119244.000000
2801 14962 1 0.16500 119244.000000
2802 12970 1 0.16500 119244.000000
2802 14264 1 0.16500 119244.000000
2803 12088 1 0.16500 119244.000000
2803 14491 1 0.16500 119244.000000
2804 12088 1 0.16500 119244.000000
2804 14790 1 0.16500 119244.000000
2805 12088 1 0.16500 119244.000000
2805 14460 1 0.16500 119244.000000
2806 12089 1 0.16500 119244.000000
2806 12767 1 0.16500 119244.000000
2807 12089 1 0.16500 119244.000000
2807 14220 1 0.16500 119244.000000
2808 12089 1 0.16500 119244.000000
2808 15688 1 0.16500 119244.000000
2809 12089 1 0.16500 119244.000000
2809 13075 1 0.16500 119244.000000
2810 12090 1 0.16500 119244.000000
2810 14101 1 0.16500 119244.000000
2811 12090 1 0.16500 119244.000000
2811 14302 1 0.16500 119244.000000
2812 12090 1 0.16500 119244.000000
2812 15428 1 0.16500 119244.000000
2813 12090 1 0.16500 119244.000000
2813 15006 1 0.16500 119244.000000
2814 12091 1 0.16500 119244.000000
2814 14829 1 0.16500 119244.000000
2815 13788 1 0.16500 119244.000000
2815 13847 1 0.16500 119244.000000
2816 12091 1 0.16500 119244.000000
2816 15862 1 0.16500 119244.000000
2817 11458 1 0.16500 119244.000000
2817 13788 1 0.16500 119244.000000
2818 12092 1 0.16500 119244.000000
2818 12362 1 0.16500 119244.000000
2819 12092 1 0.16500 119244.000000
2819 13930 1 0.16500 119244.000000
2820 12092 1 0.16500 119244.000000
2820 15999 1 0.16500 119244.000000
2821 12092 1 0.16500 119244.000000
2821 13586 1 0.16500 119244.000000
2822 12093 1 0.16500 119244.000000
2822 15851 1 0.16500 119244.000000
2823 12093 1 0.16500 119244.000000
2823 16506 1 0.16500 119244.000000
2824 12093 1 0.16500 119244.000000
2824 16071 1 0.16500 119244.000000
2825 12094 1 0.16500 119244.000000
2825 15569 1 0.16500 119244.000000
2826 12094 1 0.16500 119244.000000
2826 16414 1 0.16500 119244.000000
2827 12094 1 0.16500 119244.000000
2827 14343 1 0.16500 119244.000000
2828 12094 1 0.16500 119244.000000
2828 16378 1 0.16500 119244.000000
2829 12095 1 0.16500 119244.000000
2829 16197 1 0.16500 119244.000000
2830 12095 1 0.16500 119244.000000
2830 16027 1 0.16500 119244.000000
2831 12095 1 0.16500 119244.000000
2831 13958 1 0.16500 119244.000000
2832 12096 1 0.16500 119244.000000
2832 12268 1 0.16500 119244.000000
2833 12096 1 0.16500 119244.000000
2833 12639 1 0.16500 119244.000000
2834 12097 1 0.16500 119244.000000
2834 12124 1 0.16500 119244.000000
2835 12097 1 0.16500 119244.000000
2835 14594 1 0.16500 119244.000000
2836 12097 1 0.16500 119244.000000
2836 12524 1 0.16500 119244.000000
2837 12098 1 0.16500 119244.000000
2837 15394 1 0.16500 119244.000000
2838 12098 1 0.16500 119244.000000
2838 15544 1 0.16500 119244.000000
2839 12098 1 0.16500 119244.000000
2839 17916 1 0.16500 119244.000000
2840 12099 1 0.16500 119244.000000
2840 12989 1 0.16500 119244.000000
2841 12099 1 0.16500 119244.000000
2841 14664 1 0.16500 119244.000000
2842 12099 1 0.16500 119244.000000
2842 12979 1 0.16500 119244.000000
2843 12099 1 0.16500 119244.000000
2843 12607 1 0.16500 119244.000000
2844 12100 1 0.16500 119244.000000
2844 14139 1 0.16500 119244.000000
2845 12100 1 0.16500 119244.000000
2845 12327 1 0.16500 119244.000000
2846 12100 1 0.16500 119244.000000
2846 14606 1 0.16500 119244.000000
2847 12100 1 0.16500 119244.000000
2847 13510 1 0.16500 119244.000000
2848 12101 1 0.16500 119244.000000
2848 13880 1 0.16500 119244.000000
2849 12101 1 0.16500 119244.000000
2849 15174 1 0.16500 119244.000000
2850 12101 1 0.16500 119244.000000
2850 12299 1 0.16500 119244.000000
2851 12102 1 0.16500 119244.000000
2851 12845 1 0.16500 119244.000000
2852 12102 1 0.16500 119244.000000
2852 12784 1 0.16500 119244.000000
2853 12102 1 0.16500 119244.000000
2853 14105 1 0.16500 119244.000000
2854 12103 1 0.16500 119244.000000
2854 15873 1 0.16500 119244.000000
2855 12103 1 0.16500 119244.000000
2855 13830 1 0.16500 119244.000000
2856 12103 1 0.16500 119244.000000
2856 14108 1 0.16500 119244.000000
2857 12104 1 0.16500 119244.000000
2857 12337 1 0.16500 119244.000000
2858 12105 1 0.16500 119244.000000
2858 13679 1 0.16500 119244.000000
2859 12105 1 0.16500 119244.000000
2859 13449 1 0.16500 119244.000000
2860 12105 1 0.16500 119244.000000
2860 15298 1 0.16500 119244.000000
2861 13679 1 0.16500 119244.000000
2861 15183 1 0.16500 119244.000000
2862 12106 1 0.16500 119244.000000
2862 13645 1 0.16500 119244.000000
2863 12106 1 0.16500 119244.000000
2863 16297 1 0.16500 119244.000000
2864 12107 1 0.16500 119244.000000
2864 12609 1 0.16500 119244.000000
2865 12107 1 0.16500 119244.000000
2865 12689 1 0.16500 119244.000000
2866 12689 1 0.16500 119244.000000
2866 15485 1 0.16500 119244.000000
2867 12108 1 0.16500 119244.000000
2867 15198 1 0.16500 119244.000000
2868 12108 1 0.16500 119244.000000
2868 16222 1 0.16500 119244.000000
2869 12108 1 0.16500 119244.000000
2869 14357 1 0.16500 119244.000000
2870 12108 1 0.16500 119244.000000
2870 13433 1 0.16500 119244.000000
2871 12109 1 0.16500 119244.000000
2871 15726 1 0.16500 119244.000000
2872 12109 1 0.16500 119244.000000
2872 12895 1 0.16500 119244.000000
2873 12109 1 0.16500 119244.000000
2873 14208 1 0.16500 119244.000000
2874 12110 1 0.16500 119244.000000
2874 14129 1 0.16500 119244.000000
2875 12110 1 0.16500 119244.000000
2875 13648 1 0.16500 119244.000000
2876 12110 1 0.16500 119244.000000
2876 14254 1 0.16500 119244.000000
2877 12111 1 0.16500 119244.000000
2877 13809 1 0.16500 119244.000000
2878 12111 1 0.16500 119244.000000
2878 12179 1 0.16500 119244.000000
2879 12111 1 0.16500 119244.000000
2879 12582 1 0.16500 119244.000000
2880 12112 1 0.16500 119244.000000
2880 12207 1 0.16500 119244.000000
2881 12112 1 0.16500 119244.000000
2881 14346 1 0.16500 119244.000000
2882 12112 1 0.16500 119244.000000
2882 12940 1 0.16500 119244.000000
2883 12112 1 0.16500 119244.000000
2883 12738 1 0.16500 119244.000000
2884 12113 1 0.16500 119244.000000
2884 22104 1 0.16500 119244.000000
2885 12113 1 0.16500 119244.000000
2885 13479 1 0.16500 119244.000000
2886 12114 1 0.16500 119244.000000
2886 15543 1 0.16500 119244.000000
2887 12114 1 0.16500 119244.000000
2887 16482 1 0.16500 119244.000000
2888 12114 1 0.16500 119244.000000
2888 13917 1 0.16500 119244.000000
2889 12115 1 0.16500 119244.000000
2889 14508 1 0.16500 119244.000000
2890 12115 1 0.16500 119244.000000
2890 21918 1 0.16500 119244.000000
2891 12115 1 0.16500 119244.000000
2891 14709 1 0.16500 119244.000000
2892 12116 1 0.16500 119244.000000
2892 13197 1 0.16500 119244.000000
2893 12116 1 0.16500 119244.000000
2893 18434 1 0.16500 119244.000000
2894 12406 1 0.16500 119244.000000
2894 14564 1 0.16500 119244.000000
2895 12116 1 0.16500 119244.000000
2895 14564 1 0.16500 119244.000000
2896 12117 1 0.16500 119244.000000
2896 13085 1 0.16500 119244.000000
2897 12117 1 0.16500 119244.000000
2897 13118 1 0.16500 119244.000000
2898 12117 1 0.16500 119244.000000
2898 14937 1 0.16500 119244.000000
2899 12117 1 0.16500 119244.000000
2899 21594 1 0.16500 119244.000000
2900 12118 1 0.16500 119244.000000
2900 14995 1 0.16500 119244.000000
2901 12118 1 0.16500 119244.000000
2901 13498 1 0.16500 119244.000000
2902 12118 1 0.16500 119244.000000
2902 14825 1 0.16500 119244.000000
2903 12119 1 0.16500 119244.000000
2903 13043 1 0.16500 119244.000000
2904 12119 1 0.16500 119244.000000
2904 16023 1 0.16500 119244.000000
2905 12119 1 0.16500 119244.000000
2905 15606 1 0.16500 119244.000000
2906 12120 1 0.16500 119244.000000
2906 13770 1 0.16500 119244.000000
2907 13391 1 0.16500 119244.000000
2907 16081 1 0.16500 119244.000000
2908 12120 1 0.16500 119244.000000
2908 16081 1 0.16500 119244.000000
2909 12121 1 0.16500 119244.000000
2909 15074 1 0.16500 119244.000000
2910 12121 1 0.16500 119244.000000
2910 14369 1 0.16500 119244.000000
2911 12121 1 0.16500 119244.000000
2911 14379 1 0.16500 119244.000000
2912 12122 1 0.16500 119244.000000
2912 15033 1 0.16500 119244.000000
2913 12122 1 0.16500 119244.000000
2913 14892 1 0.16500 119244.000000
2914 12122 1 0.16500 119244.000000
2914 22414 1 0.16500 119244.000000
2915 12123 1 0.16500 119244.000000
2915 16073 1 0.16500 119244.000000
2916 12123 1 0.16500 119244.000000
2916 15617 1 0.16500 119244.000000
2917 12123 1 0.16500 119244.000000
2917 12601 1 0.16500 119244.000000
2918 12124 1 0.16500 119244.000000
2918 15015 1 0.16500 119244.000000
2919 12124 1 0.16500 119244.000000
2919 12246 1 0.16500 119244.000000
2920 12124 1 0.16500 119244.000000
2920 16483 1 0.16500 119244.000000
2921 12125 1 0.16500 119244.000000
2921 22257 1 0.16500 119244.000000
2922 12125 1 0.16500 119244.000000
2922 14626 1 0.16500 119244.000000
2923 12127 1 0.16500 119244.000000
2923 16510 1 0.16500 119244.000000
2924 12127 1 0.16500 119244.000000
2924 15576 1 0.16500 119244.000000
2925 12127 1 0.16500 119244.000000
2925 16308 1 0.16500 119244.000000
2926 12127 1 0.16500 119244.000000
2926 15994 1 0.16500 119244.000000
2927 12128 1 0.16500 119244.000000
2927 15749 1 0.16500 119244.000000
2928 12128 1 0.16500 119244.000000
2928 16280 1 0.16500 119244.000000
2929 12128 1 0.16500 119244.000000
2929 16096 1 0.16500 119244.000000
2930 12128 1 0.16500 119244.000000
2930 15527 1 0.16500 119244.000000
2931 12129 1 0.16500 119244.000000
2931 14102 1 0.16500 119244.000000
2932 12129 1 0.16500 119244.000000
2932 12969 1 0.16500 119244.000000
2933 12129 1 0.16500 119244.000000
2933 13646 1 0.16500 119244.000000
2934 12130 1 0.16500 119244.000000
2934 16338 1 0.16500 119244.000000
2935 12130 1 0.16500 119244.000000
2935 12182 1 0.16500 119244.000000
2936 12130 1 0.16500 119244.000000
2936 14134 1 0.16500 119244.000000
2937 12131 1 0.16500 119244.000000
2937 12776 1 0.16500 119244.000000
2938 12131 1 0.16500 119244.000000
2938 14979 1 0.16500 119244.000000
2939 12131 1 0.16500 119244.000000
2939 14957 1 0.16500 119244.000000
2940 12132 1 0.16500 119244.000000
2940 16345 1 0.16500 119244.000000
2941 12132 1 0.16500 119244.000000
2941 12451 1 0.16500 119244.000000
2942 11621 1 0.16500 119244.000000
2942 12132 1 0.16500 119244.000000
2943 12451 1 0.16500 119244.000000
2943 14109 1 0.16500 119244.000000
2944 13909 1 0.16500 119244.000000
2944 19038 1 0.16500 119244.000000
2945 14753 1 0.16500 119244.000000
2945 19038 1 0.16500 119244.000000
2946 16001 1 0.16500 119244.000000
2946 19038 1 0.16500 119244.000000
2947 12133 1 0.16500 119244.000000
2947 15501 1 0.16500 119244.000000
2948 12133 1 0.16500 119244.000000
2948 13309 1 0.16500 119244.000000
2949 12133 1 0.16500 119244.000000
2949 15658 1 0.16500 119244.000000
2950 12133 1 0.16500 119244.000000
2950 16240 1 0.16500 119244.000000
2951 16309 1 0.16500 119244.000000
2951 16397 1 0.16500 119244.000000
2952 16309 1 0.16500 119244.000000
2952 21258 1 0.16500 119244.000000
2953 12134 1 0.16500 119244.000000
2953 16309 1 0.16500 119244.000000
2954 14249 1 0.16500 119244.000000
2954 16309 1 0.16500 119244.000000
2955 12135 1 0.16500 119244.000000
2955 14948 1 0.16500 119244.000000
2956 12135 1 0.16500 119244.000000
2956 16208 1 0.16500 119244.000000
2957 12135 1 0.16500 119244.000000
2957 13877 1 0.16500 119244.000000
2958 12136 1 0.16500 119244.000000
2958 15179 1 0.16500 119244.000000
2959 12136 1 0.16500 119244.000000
2959 15554 1 0.16500 119244.000000
2960 12136 1 0.16500 119244.000000
2960 14591 1 0.16500 119244.000000
2961 12136 1 0.16500 119244.000000
2961 15843 1 0.16500 119244.000000
2962 12137 1 0.16500 119244.000000
2962 13238 1 0.16500 119244.000000
2963 12137 1 0.16500 119244.000000
2963 16152 1 0.16500 119244.000000
2964 12137 1 0.16500 119244.000000
2964 13124 1 0.16500 119244.000000
2965 12137 1 0.16500 119244.000000
2965 15482 1 0.16500 119244.000000
2966 12138 1 0.16500 119244.000000
2966 13682 1 0.16500 119244.000000
2967 12138 1 0.16500 119244.000000
2967 13161 1 0.16500 119244.000000
2968 12138 1 0.16500 119244.000000
2968 14525 1 0.16500 119244.000000
2969 12138 1 0.16500 119244.000000
2969 15767 1 0.16500 119244.000000
2970 12139 1 0.16500 119244.000000
2970 15683 1 0.16500 119244.000000
2971 12139 1 0.16500 119244.000000
2971 12669 1 0.16500 119244.000000
2972 12366 1 0.16500 119244.000000
2972 12669 1 0.16500 119244.000000
2973 12139 1 0.16500 119244.000000
2973 14021 1 0.16500 119244.000000
2974 12140 1 0.16500 119244.000000
2974 12379 1 0.16500 119244.000000
2975 12140 1 0.16500 119244.000000
2975 13282 1 0.16500 119244.000000
2976 12140 1 0.16500 119244.000000
2976 13663 1 0.16500 119244.000000
2977 12140 1 0.16500 119244.000000
2977 14377 1 0.16500 119244.000000
2978 12141 1 0.16500 119244.000000
2978 14431 1 0.16500 119244.000000
2979 12141 1 0.16500 119244.000000
2979 13058 1 0.16500 119244.000000
2980 12141 1 0.16500 119244.000000
2980 16374 1 0.16500 119244.000000
2981 12141 1 0.16500 119244.000000
2981 16312 1 0.16500 119244.000000
2982 12142 1 0.16500 119244.000000
2982 13822 1 0.16500 119244.000000
2983 12142 1 0.16500 119244.000000
2983 13090 1 0.16500 119244.000000
2984 12142 1 0.16500 119244.000000
2984 13331 1 0.16500 119244.000000
2985 12142 1 0.16500 119244.000000
2985 12779 1 0.16500 119244.000000
2986 12143 1 0.16500 119244.000000
2986 17328 1 0.16500 119244.000000
2987 12143 1 0.16500 119244.000000
2987 14975 1 0.16500 119244.000000
2988 12143 1 0.16500 119244.000000
2988 14732 1 0.16500 119244.000000
2989 12032 1 0.16500 119244.000000
2989 16401 1 0.16500 119244.000000
2990 12032 1 0.16500 119244.000000
2990 17790 1 0.16500 119244.000000
2991 14529 1 0.16500 119244.000000
2991 19050 1 0.16500 119244.000000
2992 15123 1 0.16500 119244.000000
2992 15660 1 0.16500 119244.000000
2993 12408 1 0.16500 119244.000000
2993 15660 1 0.16500 119244.000000
2994 12781 1 0.16500 119244.000000
2994 15660 1 0.16500 119244.000000
2995 15660 1 0.16500 119244.000000
2995 19062 1 0.16500 119244.000000
2996 12144 1 0.16500 119244.000000
2996 22014 1 0.16500 119244.000000
2997 12144 1 0.16500 119244.000000
2997 12761 1 0.16500 119244.000000
2998 12145 1 0.16500 119244.000000
2998 14895 1 0.16500 119244.000000
2999 12145 1 0.16500 119244.000000
2999 16408 1 0.16500 119244.000000
3000 12145 1 0.16500 119244.000000
3000 15120 1 0.16500 119244.000000
3001 12145 1 0.16500 119244.000000
3001 12664 1 0.16500 119244.000000
3002 12146 1 0.16500 119244.000000
3002 12305 1 0.16500 119244.000000
3003 12146 1 0.16500 119244.000000
3003 14759 1 0.16500 119244.000000
3004 12147 1 0.16500 119244.000000
3004 13823 1 0.16500 119244.000000
3005 12147 1 0.16500 119244.000000
3005 13001 1 0.16500 119244.000000
3006 12147 1 0.16500 119244.000000
3006 14169 1 0.16500 119244.000000
3007 12148 1 0.16500 119244.000000
3007 16141 1 0.16500 119244.000000
3008 13689 1 0.16500 119244.000000
3008 13865 1 0.16500 119244.000000
3009 12148 1 0.16500 119244.000000
3009 14418 1 0.16500 119244.000000
3010 12148 1 0.16500 119244.000000
3010 13865 1 0.16500 119244.000000
3011 12150 1 0.16500 119244.000000
3011 16511 1 0.16500 119244.000000
3012 12150 1 0.16500 119244.000000
3012 13354 1 0.16500 119244.000000
3013 12150 1 0.16500 119244.000000
3013 22469 1 0.16500 119244.000000
3014 12150 1 0.16500 119244.000000
3014 15848 1 0.16500 119244.000000
3015 12151 1 0.16500 119244.000000
3015 12693 1 0.16500 119244.000000
3016 12151 1 0.16500 119244.000000
3016 16434 1 0.16500 119244.000000
3017 12151 1 0.16500 119244.000000
3017 14294 1 0.16500 119244.000000
3018 12152 1 0.16500 119244.000000
3018 14372 1 0.16500 119244.000000
3019 12152 1 0.16500 119244.000000
3019 14902 1 0.16500 119244.000000
3020 12152 1 0.16500 119244.000000
3020 14196 1 0.16500 119244.000000
3021 12152 1 0.16500 119244.000000
3021 15990 1 0.16500 119244.000000
3022 12153 1 0.16500 119244.000000
3022 14094 1 0.16500 119244.000000
3023 12153 1 0.16500 119244.000000
3023 12265 1 0.16500 119244.000000
3024 12153 1 0.16500 119244.000000
3024 15261 1 0.16500 119244.000000
3025 12154 1 0.16500 119244.000000
3025 13887 1 0.16500 119244.000000
3026 12154 1 0.16500 119244.000000
3026 12444 1 0.16500 119244.000000
3027 12154 1 0.16500 119244.000000
3027 16315 1 0.16500 119244.000000
3028 12154 1 0.16500 119244.000000
3028 13878 1 0.16500 119244.000000
3029 12155 1 0.16500 119244.000000
3029 15763 1 0.16500 119244.000000
3030 12155 1 0.16500 119244.000000
3030 15511 1 0.16500 119244.000000
3031 12155 1 0.16500 119244.000000
3031 12600 1 0.16500 119244.000000
3032 12155 1 0.16500 119244.000000
3032 12330 1 0.16500 119244.000000
3033 12156 1 0.16500 119244.000000
3033 15924 1 0.16500 119244.000000
3034 12156 1 0.16500 119244.000000
3034 20202 1 0.16500 119244.000000
3035 12156 1 0.16500 119244.000000
3035 21552 1 0.16500 119244.000000
3036 12157 1 0.16500 119244.000000
3036 15541 1 0.16500 119244.000000
3037 12157 1 0.16500 119244.000000
3037 12862 1 0.16500 119244.000000
3038 12157 1 0.16500 119244.000000
3038 12248 1 0.16500 119244.000000
3039 12158 1 0.16500 119244.000000
3039 18014 1 0.16500 119244.000000
3040 12158 1 0.16500 119244.000000
3040 14851 1 0.16500 119244.000000
3041 12158 1 0.16500 119244.000000
3041 18224 1 0.16500 119244.000000
3042 12159 1 0.16500 119244.000000
3042 14522 1 0.16500 119244.000000
3043 12160 1 0.16500 119244.000000
3043 15810 1 0.16500 119244.000000
3044 12160 1 0.16500 119244.000000
3044 15054 1 0.16500 119244.000000
3045 12160 1 0.16500 119244.000000
3045 12954 1 0.16500 119244.000000
3046 15205 1 0.16500 119244.000000
3046 15810 1 0.16500 119244.000000
3047 16428 1 0.16500 119244.000000
3047 19086 1 0.16500 119244.000000
3048 16466 1 0.16500 119244.000000
3048 19086 1 0.16500 119244.000000
3049 12161 1 0.16500 119244.000000
3049 14220 1 0.16500 119244.000000
3050 12161 1 0.16500 119244.000000
3050 15687 1 0.16500 119244.000000
3051 12161 1 0.16500 119244.000000
3051 13010 1 0.16500 119244.000000
3052 12161 1 0.16500 119244.000000
3052 16198 1 0.16500 119244.000000
3053 12162 1 0.16500 119244.000000
3053 15550 1 0.16500 119244.000000
3054 11381 1 0.16500 119244.000000
3054 12162 1 0.16500 119244.000000
3055 12162 1 0.16500 119244.000000
3055 15063 1 0.16500 119244.000000
3056 11790 1 0.16500 119244.000000
3056 12905 1 0.16500 119244.000000
3057 11641 1 0.16500 119244.000000
3057 15134 1 0.16500 119244.000000
3058 12164 1 0.16500 119244.000000
3058 14262 1 0.16500 119244.000000
3059 12164 1 0.16500 119244.000000
3059 16044 1 0.16500 119244.000000
3060 12164 1 0.16500 119244.000000
3060 15779 1 0.16500 119244.000000
3061 12165 1 0.16500 119244.000000
3061 13246 1 0.16500 119244.000000
3062 12165 1 0.16500 119244.000000
3062 16335 1 0.16500 119244.000000
3063 12166 1 0.16500 119244.000000
3063 12383 1 0.16500 119244.000000
3064 12166 1 0.16500 119244.000000
3064 13851 1 0.16500 119244.000000
3065 12166 1 0.16500 119244.000000
3065 13691 1 0.16500 119244.000000
3066 12166 1 0.16500 119244.000000
3066 16235 1 0.16500 119244.000000
3067 12167 1 0.16500 119244.000000
3067 14170 1 0.16500 119244.000000
3068 12167 1 0.16500 119244.000000
3068 14600 1 0.16500 119244.000000
3069 12167 1 0.16500 119244.000000
3069 16483 1 0.16500 119244.000000
3070 12168 1 0.16500 119244.000000
3070 14447 1 0.16500 119244.000000
3071 12168 1 0.16500 119244.000000
3071 22047 1 0.16500 119244.000000
3072 12168 1 0.16500 119244.000000
3072 14980 1 0.16500 119244.000000
3073 12168 1 0.16500 119244.000000
3073 16297 1 0.16500 119244.000000
3074 12169 1 0.16500 119244.000000
3074 12985 1 0.16500 119244.000000
3075 12169 1 0.16500 119244.000000
3075 15860 1 0.16500 119244.000000
3076 12169 1 0.16500 119244.000000
3076 14036 1 0.16500 119244.000000
3077 12170 1 0.16500 119244.000000
3077 13480 1 0.16500 119244.000000
3078 12170 1 0.16500 119244.000000
3078 16092 1 0.16500 119244.000000
3079 12170 1 0.16500 119244.000000
3079 15483 1 0.16500 119244.000000
3080 12171 1 0.16500 119244.000000
3080 15938 1 0.16500 119244.000000
3081 12171 1 0.16500 119244.000000
3081 16375 1 0.16500 119244.000000
3082 12172 1 0.16500 119244.000000
3082 16104 1 0.16500 119244.000000
3083 12172 1 0.16500 119244.000000
3083 16200 1 0.16500 119244.000000
3084 13492 1 0.16500 119244.000000
3084 14759 1 0.16500 119244.000000
3085 12173 1 0.16500 119244.000000
3085 15933 1 0.16500 119244.000000
3086 12173 1 0.16500 119244.000000
3086 13492 1 0.16500 119244.000000
3087 12174 1 0.16500 119244.000000
3087 13621 1 0.16500 119244.000000
3088 12174 1 0.16500 119244.000000
3088 12542 1 0.16500 119244.000000
3089 12174 1 0.16500 119244.000000
3089 14627 1 0.16500 119244.000000
3090 12175 1 0.16500 119244.000000
3090 13157 1 0.16500 119244.000000
3091 12175 1 0.16500 119244.000000
3091 12936 1 0.16500 119244.000000
3092 12175 1 0.16500 119244.000000
3092 14095 1 0.16500 119244.000000
3093 12175 1 0.16500 119244.000000
3093 12215 1 0.16500 119244.000000
3094 12176 1 0.16500 119244.000000
3094 14677 1 0.16500 119244.000000
3095 12176 1 0.16500 119244.000000
3095 12783 1 0.16500 119244.000000
3096 12176 1 0.16500 119244.000000
3096 14775 1 0.16500 119244.000000
3097 12177 1 0.16500 119244.000000
3097 13685 1 0.16500 119244.000000
3098 12177 1 0.16500 119244.000000
3098 13775 1 0.16500 119244.000000
3099 12177 1 0.16500 119244.000000
3099 15723 1 0.16500 119244.000000
3100 12178 1 0.16500 119244.000000
3100 15972 1 0.16500 119244.000000
3101 12178 1 0.16500 119244.000000
3101 21768 1 0.16500 119244.000000
3102 12179 1 0.16500 119244.000000
3102 14442 1 0.16500 119244.000000
3103 12179 1 0.16500 119244.000000
3103 12939 1 0.16500 119244.000000
3104 14680 1 0.16500 119244.000000
3104 19098 1 0.16500 119244.000000
3105 19098 1 0.16500 119244.000000
3105 22011 1 0.16500 119244.000000
3106 19098 1 0.16500 119244.000000
3106 21528 1 0.16500 119244.000000
3107 15316 1 0.16500 119244.000000
3107 16146 1 0.16500 119244.000000
3108 12511 1 0.16500 119244.000000
3108 15316 1 0.16500 119244.000000
3109 19110 1 0.16500 119244.000000
3109 19146 1 0.16500 119244.000000
3110 12180 1 0.16500 119244.000000
3110 16283 1 0.16500 119244.000000
3111 12180 1 0.16500 119244.000000
3111 13449 1 0.16500 119244.000000
3112 12180 1 0.16500 119244.000000
3112 14210 1 0.16500 119244.000000
3113 12181 1 0.16500 119244.000000
3113 14127 1 0.16500 119244.000000
3114 12181 1 0.16500 119244.000000
3114 16404 1 0.16500 119244.000000
3115 12181 1 0.16500 119244.000000
3115 12877 1 0.16500 119244.000000
3116 12181 1 0.16500 119244.000000
3116 16327 1 0.16500 119244.000000
3117 12182 1 0.16500 119244.000000
3117 13156 1 0.16500 119244.000000
3118 12182 1 0.16500 119244.000000
3118 14130 1 0.16500 119244.000000
3119 12183 1 0.16500 119244.000000
3119 21831 1 0.16500 119244.000000
3120 12183 1 0.16500 119244.000000
3120 14771 1 0.16500 119244.000000
3121 12183 1 0.16500 119244.000000
3121 15318 1 0.16500 119244.000000
3122 12184 1 0.16500 119244.000000
3122 14745 1 0.16500 119244.000000
3123 12184 1 0.16500 119244.000000
3123 14879 1 0.16500 119244.000000
3124 12184 1 0.16500 119244.000000
3124 15235 1 0.16500 119244.000000
3125 12184 1 0.16500 119244.000000
3125 15335 1 0.16500 119244.000000
3126 12185 1 0.16500 119244.000000
3126 14533 1 0.16500 119244.000000
3127 12185 1 0.16500 119244.000000
3127 15583 1 0.16500 119244.000000
3128 12185 1 0.16500 119244.000000
3128 16340 1 0.16500 119244.000000
3129 12185 1 0.16500 119244.000000
3129 16420 1 0.16500 119244.000000
3130 12186 1 0.16500 119244.000000
3130 14450 1 0.16500 119244.000000
3131 12186 1 0.16500 119244.000000
3131 13545 1 0.16500 119244.000000
3132 12186 1 0.16500 119244.000000
3132 12265 1 0.16500 119244.000000
3133 14029 1 0.16500 119244.000000
3133 15587 1 0.16500 119244.000000
3134 12187 1 0.16500 119244.000000
3134 14029 1 0.16500 119244.000000
3135 14029 1 0.16500 119244.000000
3135 15075 1 0.16500 119244.000000
3136 12187 1 0.16500 119244.000000
3136 15497 1 0.16500 119244.000000
3137 12188 1 0.16500 119244.000000
3137 15872 1 0.16500 119244.000000
3138 12188 1 0.16500 119244.000000
3138 15111 1 0.16500 119244.000000
3139 12188 1 0.16500 119244.000000
3139 13468 1 0.16500 119244.000000
3140 12189 1 0.16500 119244.000000
3140 16074 1 0.16500 119244.000000
3141 12189 1 0.16500 119244.000000
3141 15293 1 0.16500 119244.000000
3142 12189 1 0.16500 119244.000000
3142 13079 1 0.16500 119244.000000
3143 12189 1 0.16500 119244.000000
3143 13893 1 0.16500 119244.000000
3144 12190 1 0.16500 119244.000000
3144 14037 1 0.16500 119244.000000
3145 12190 1 0.16500 119244.000000
3145 14770 1 0.16500 119244.000000
3146 12190 1 0.16500 119244.000000
3146 13327 1 0.16500 119244.000000
3147 15578 1 0.16500 119244.000000
3147 19122 1 0.16500 119244.000000
3148 19134 1 0.16500 119244.000000
3148 21498 1 0.16500 119244.000000
3149 15778 1 0.16500 119244.000000
3149 19134 1 0.16500 119244.000000
3150 12191 1 0.16500 119244.000000
3150 13877 1 0.16500 119244.000000
3151 12191 1 0.16500 119244.000000
3151 13317 1 0.16500 119244.000000
3152 12191 1 0.16500 119244.000000
3152 12237 1 0.16500 119244.000000
3153 12191 1 0.16500 119244.000000
3153 13005 1 0.16500 119244.000000
3154 12192 1 0.16500 119244.000000
3154 15555 1 0.16500 119244.000000
3155 12192 1 0.16500 119244.000000
3155 16033 1 0.16500 119244.000000
3156 12192 1 0.16500 119244.000000
3156 13236 1 0.16500 119244.000000
3157 12193 1 0.16500 119244.000000
3157 13841 1 0.16500 119244.000000
3158 12193 1 0.16500 119244.000000
3158 15727 1 0.16500 119244.000000
3159 12193 1 0.16500 119244.000000
3159 16048 1 0.16500 119244.000000
3160 12193 1 0.16500 119244.000000
3160 14997 1 0.16500 119244.000000
3161 16481 1 0.16500 119244.000000
3161 19146 1 0.16500 119244.000000
3162 12194 1 0.16500 119244.000000
3162 16284 1 0.16500 119244.000000
3163 12194 1 0.16500 119244.000000
3163 14952 1 0.16500 119244.000000
3164 12194 1 0.16500 119244.000000
3164 12521 1 0.16500 119244.000000
3165 12195 1 0.16500 119244.000000
3165 13799 1 0.16500 119244.000000
3166 12195 1 0.16500 119244.000000
3166 13768 1 0.16500 119244.000000
3167 12195 1 0.16500 119244.000000
3167 12231 1 0.16500 119244.000000
3168 12195 1 0.16500 119244.000000
3168 12472 1 0.16500 119244.000000
3169 12196 1 0.16500 119244.000000
3169 14707 1 0.16500 119244.000000
3170 12196 1 0.16500 119244.000000
3170 14910 1 0.16500 119244.000000
3171 12196 1 0.16500 119244.000000
3171 12965 1 0.16500 119244.000000
3172 12196 1 0.16500 119244.000000
3172 12974 1 0.16500 119244.000000
3173 12197 1 0.16500 119244.000000
3173 13645 1 0.16500 119244.000000
3174 12197 1 0.16500 119244.000000
3174 14260 1 0.16500 119244.000000
3175 12197 1 0.16500 119244.000000
3175 12955 1 0.16500 119244.000000
3176 12197 1 0.16500 119244.000000
3176 12891 1 0.16500 119244.000000
3177 12198 1 0.16500 119244.000000
3177 13471 1 0.16500 119244.000000
3178 12198 1 0.16500 119244.000000
3178 14858 1 0.16500 119244.000000
3179 12198 1 0.16500 119244.000000
3179 13835 1 0.16500 119244.000000
3180 12198 1 0.16500 119244.000000
3180 12773 1 0.16500 119244.000000
3181 12199 1 0.16500 119244.000000
3181 13358 1 0.16500 119244.000000
3182 12199 1 0.16500 119244.000000
3182 13548 1 0.16500 119244.000000
3183 12199 1 0.16500 119244.000000
3183 15370 1 0.16500 119244.000000
3184 11342 1 0.16500 119244.000000
3184 17370 1 0.16500 119244.000000
3185 12200 1 0.16500 119244.000000
3185 16192 1 0.16500 119244.000000
3186 12200 1 0.16500 119244.000000
3186 12910 1 0.16500 119244.000000
3187 12200 1 0.16500 119244.000000
3187 14382 1 0.16500 119244.000000
3188 14627 1 0.16500 119244.000000
3188 19158 1 0.16500 119244.000000
3189 19158 1 0.16500 119244.000000
3189 21549 1 0.16500 119244.000000
3190 12201 1 0.16500 119244.000000
3190 14268 1 0.16500 119244.000000
3191 12201 1 0.16500 119244.000000
3191 13752 1 0.16500 119244.000000
3192 12201 1 0.16500 119244.000000
3192 15831 1 0.16500 119244.000000
3193 12201 1 0.16500 119244.000000
3193 12450 1 0.16500 119244.000000
3194 12202 1 0.16500 119244.000000
3194 16094 1 0.16500 119244.000000
3195 12202 1 0.16500 119244.000000
3195 22290 1 0.16500 119244.000000
3196 12372 1 0.16500 119244.000000
3196 16094 1 0.16500 119244.000000
3197 12202 1 0.16500 119244.000000
3197 13956 1 0.16500 119244.000000
3198 12203 1 0.16500 119244.000000
3198 16321 1 0.16500 119244.000000
3199 12203 1 0.16500 119244.000000
3199 13346 1 0.16500 119244.000000
3200 12203 1 0.16500 119244.000000
3200 13528 1 0.16500 119244.000000
3201 12203 1 0.16500 119244.000000
3201 16520 1 0.16500 119244.000000
3202 12204 1 0.16500 119244.000000
3202 13802 1 0.16500 119244.000000
3203 12204 1 0.16500 119244.000000
3203 13468 1 0.16500 119244.000000
3204 12204 1 0.16500 119244.000000
3204 14893 1 0.16500 119244.000000
3205 12204 1 0.16500 119244.000000
3205 14335 1 0.16500 119244.000000
3206 12205 1 0.16500 119244.000000
3206 15862 1 0.16500 119244.000000
3207 12205 1 0.16500 119244.000000
3207 18364 1 0.16500 119244.000000
3208 12205 1 0.16500 119244.000000
3208 14087 1 0.16500 119244.000000
3209 12206 1 0.16500 119244.000000
3209 15083 1 0.16500 119244.000000
3210 12206 1 0.16500 119244.000000
3210 14190 1 0.16500 119244.000000
3211 12206 1 0.16500 119244.000000
3211 15722 1 0.16500 119244.000000
3212 12206 1 0.16500 119244.000000
3212 15099 1 0.16500 119244.000000
3213 12207 1 0.16500 119244.000000
3213 12258 1 0.16500 119244.000000
3214 12288 1 0.16500 119244.000000
3214 14885 1 0.16500 119244.000000
3215 12207 1 0.16500 119244.000000
3215 12288 1 0.16500 119244.000000
3216 12208 1 0.16500 119244.000000
3216 13012 1 0.16500 119244.000000
3217 12208 1 0.16500 119244.000000
3217 12221 1 0.16500 119244.000000
3218 12208 1 0.16500 119244.000000
3218 14550 1 0.16500 119244.000000
3219 12209 1 0.16500 119244.000000
3219 19674 1 0.16500 119244.000000
3220 12209 1 0.16500 119244.000000
3220 21771 1 0.16500 119244.000000
3221 12209 1 0.16500 119244.000000
3221 18420 1 0.16500 119244.000000
3222 12209 1 0.16500 119244.000000
3222 12221 1 0.16500 119244.000000
3223 19170 1 0.16500 119244.000000
3223 21741 1 0.16500 119244.000000
3224 15892 1 0.16500 119244.000000
3224 19170 1 0.16500 119244.000000
3225 12210 1 0.16500 119244.000000
3225 16190 1 0.16500 119244.000000
3226 12210 1 0.16500 119244.000000
3226 14099 1 0.16500 119244.000000
3227 12210 1 0.16500 119244.000000
3227 13178 1 0.16500 119244.000000
3228 12210 1 0.16500 119244.000000
3228 13522 1 0.16500 119244.000000
3229 12211 1 0.16500 119244.000000
3229 15404 1 0.16500 119244.000000
3230 12211 1 0.16500 119244.000000
3230 13559 1 0.16500 119244.000000
3231 12211 1 0.16500 119244.000000
3231 12592 1 0.16500 119244.000000
3232 12211 1 0.16500 119244.000000
3232 12479 1 0.16500 119244.000000
3233 12212 1 0.16500 119244.000000
3233 13013 1 0.16500 119244.000000
3234 11711 1 0.16500 119244.000000
3234 12489 1 0.16500 119244.000000
3235 11711 1 0.16500 119244.000000
3235 13870 1 0.16500 119244.000000
3236 12213 1 0.16500 119244.000000
3236 13104 1 0.16500 119244.000000
3237 12213 1 0.16500 119244.000000
3237 15104 1 0.16500 119244.000000
3238 12213 1 0.16500 119244.000000
3238 16524 1 0.16500 119244.000000
3239 12213 1 0.16500 119244.000000
3239 13183 1 0.16500 119244.000000
3240 12214 1 0.16500 119244.000000
3240 13861 1 0.16500 119244.000000
3241 12214 1 0.16500 119244.000000
3241 14984 1 0.16500 119244.000000
3242 12214 1 0.16500 119244.000000
3242 15910 1 0.16500 119244.000000
3243 12215 1 0.16500 119244.000000
3243 15504 1 0.16500 119244.000000
3244 12215 1 0.16500 119244.000000
3244 13438 1 0.16500 119244.000000
3245 12215 1 0.16500 119244.000000
3245 12861 1 0.16500 119244.000000
3246 12216 1 0.16500 119244.000000
3246 12974 1 0.16500 119244.000000
3247 12216 1 0.16500 119244.000000
3247 13621 1 0.16500 119244.000000
3248 12216 1 0.16500 119244.000000
3248 19158 1 0.16500 119244.000000
3249 12216 1 0.16500 119244.000000
3249 12413 1 0.16500 119244.000000
3250 12217 1 0.16500 119244.000000
3250 12397 1 0.16500 119244.000000
3251 12217 1 0.16500 119244.000000
3251 14218 1 0.16500 119244.000000
3252 12217 1 0.16500 119244.000000
3252 13811 1 0.16500 119244.000000
3253 12218 1 0.16500 119244.000000
3253 12950 1 0.16500 119244.000000
3254 12218 1 0.16500 119244.000000
3254 15681 1 0.16500 119244.000000
3255 12218 1 0.16500 119244.000000
3255 13021 1 0.16500 119244.000000
3256 12219 1 0.16500 119244.000000
3256 16155 1 0.16500 119244.000000
3257 12219 1 0.16500 119244.000000
3257 14197 1 0.16500 119244.000000
3258 12219 1 0.16500 119244.000000
3258 15433 1 0.16500 119244.000000
3259 12219 1 0.16500 119244.000000
3259 12326 1 0.16500 119244.000000
3260 12220 1 0.16500 119244.000000
3260 13773 1 0.16500 119244.000000
3261 12220 1 0.16500 119244.000000
3261 13683 1 0.16500 119244.000000
3262 12220 1 0.16500 119244.000000
3262 13559 1 0.16500 119244.000000
3263 12220 1 0.16500 119244.000000
3263 13884 1 0.16500 119244.000000
3264 12221 1 0.16500 119244.000000
3264 14146 1 0.16500 119244.000000
3265 12222 1 0.16500 119244.000000
3265 13079 1 0.16500 119244.000000
3266 12222 1 0.16500 119244.000000
3266 12581 1 0.16500 119244.000000
3267 12222 1 0.16500 119244.000000
3267 12964 1 0.16500 119244.000000
3268 12222 1 0.16500 119244.000000
3268 13398 1 0.16500 119244.000000
3269 12223 1 0.16500 119244.000000
3269 15531 1 0.16500 119244.000000
3270 12223 1 0.16500 119244.000000
3270 13603 1 0.16500 119244.000000
3271 12223 1 0.16500 119244.000000
3271 12571 1 0.16500 119244.000000
3272 12223 1 0.16500 119244.000000
3272 14435 1 0.16500 119244.000000
3273 12224 1 0.16500 119244.000000
3273 13346 1 0.16500 119244.000000
3274 12224 1 0.16500 119244.000000
3274 12335 1 0.16500 119244.000000
3275 12224 1 0.16500 119244.000000
3275 16495 1 0.16500 119244.000000
3276 12224 1 0.16500 119244.000000
3276 15648 1 0.16500 119244.000000
3277 12225 1 0.16500 119244.000000
3277 15400 1 0.16500 119244.000000
3278 12225 1 0.16500 119244.000000
3278 14893 1 0.16500 119244.000000
3279 12226 1 0.16500 119244.000000
3279 12412 1 0.16500 119244.000000
3280 12226 1 0.16500 119244.000000
3280 15323 1 0.16500 119244.000000
3281 12226 1 0.16500 119244.000000
3281 13522 1 0.16500 119244.000000
3282 12227 1 0.16500 119244.000000
3282 16417 1 0.16500 119244.000000
3283 12227 1 0.16500 119244.000000
3283 16506 1 0.16500 119244.000000
3284 12486 1 0.16500 119244.000000
3284 19182 1 0.16500 119244.000000
3285 19182 1 0.16500 119244.000000
3285 21873 1 0.16500 119244.000000
3286 12228 1 0.16500 119244.000000
3286 13136 1 0.16500 119244.000000
3287 12228 1 0.16500 119244.000000
3287 15690 1 0.16500 119244.000000
3288 12229 1 0.16500 119244.000000
3288 13564 1 0.16500 119244.000000
3289 12229 1 0.16500 119244.000000
3289 13339 1 0.16500 119244.000000
3290 12229 1 0.16500 119244.000000
3290 13190 1 0.16500 119244.000000
3291 12900 1 0.16500 119244.000000
3291 13466 1 0.16500 119244.000000
3292 12230 1 0.16500 119244.000000
3292 13445 1 0.16500 119244.000000
3293 12230 1 0.16500 119244.000000
3293 12900 1 0.16500 119244.000000
3294 12230 1 0.16500 119244.000000
3294 13313 1 0.16500 119244.000000
3295 12231 1 0.16500 119244.000000
3295 13490 1 0.16500 119244.000000
3296 12231 1 0.16500 119244.000000
3296 14880 1 0.16500 119244.000000
3297 12231 1 0.16500 119244.000000
3297 13952 1 0.16500 119244.000000
3298 13203 1 0.16500 119244.000000
3298 13782 1 0.16500 119244.000000
3299 12232 1 0.16500 119244.000000
3299 12720 1 0.16500 119244.000000
3300 12232 1 0.16500 119244.000000
3300 13203 1 0.16500 119244.000000
3301 12232 1 0.16500 119244.000000
3301 20238 1 0.16500 119244.000000
3302 13179 1 0.16500 119244.000000
3302 19194 1 0.16500 119244.000000
3303 19194 1 0.16500 119244.000000
3303 19614 1 0.16500 119244.000000
3304 15347 1 0.16500 119244.000000
3304 19194 1 0.16500 119244.000000
3305 12233 1 0.16500 119244.000000
3305 15308 1 0.16500 119244.000000
3306 12233 1 0.16500 119244.000000
3306 14212 1 0.16500 119244.000000
3307 12233 1 0.16500 119244.000000
3307 15045 1 0.16500 119244.000000
3308 12233 1 0.16500 119244.000000
3308 12438 1 0.16500 119244.000000
3309 12054 1 0.16500 119244.000000
3309 12234 1 0.16500 119244.000000
3310 12234 1 0.16500 119244.000000
3310 12736 1 0.16500 119244.000000
3311 12234 1 0.16500 119244.000000
3311 13666 1 0.16500 119244.000000
3312 12234 1 0.16500 119244.000000
3312 16108 1 0.16500 119244.000000
3313 12235 1 0.16500 119244.000000
3313 15808 1 0.16500 119244.000000
3314 12235 1 0.16500 119244.000000
3314 15929 1 0.16500 119244.000000
3315 12235 1 0.16500 119244.000000
3315 12359 1 0.16500 119244.000000
3316 12235 1 0.16500 119244.000000
3316 16109 1 0.16500 119244.000000
3317 12236 1 0.16500 119244.000000
3317 14297 1 0.16500 119244.000000
3318 12236 1 0.16500 119244.000000
3318 15839 1 0.16500 119244.000000
3319 12236 1 0.16500 119244.000000
3319 14387 1 0.16500 119244.000000
3320 12237 1 0.16500 119244.000000
3320 15523 1 0.16500 119244.000000
3321 12237 1 0.16500 119244.000000
3321 16097 1 0.16500 119244.000000
3322 12237 1 0.16500 119244.000000
3322 13629 1 0.16500 119244.000000
3323 12238 1 0.16500 119244.000000
3323 14685 1 0.16500 119244.000000
3324 12238 1 0.16500 119244.000000
3324 13096 1 0.16500 119244.000000
3325 12239 1 0.16500 119244.000000
3325 13366 1 0.16500 119244.000000
3326 12239 1 0.16500 119244.000000
3326 14340 1 0.16500 119244.000000
3327 12239 1 0.16500 119244.000000
3327 13524 1 0.16500 119244.000000
3328 13082 1 0.16500 119244.000000
3328 14340 1 0.16500 119244.000000
3329 12240 1 0.16500 119244.000000
3329 13648 1 0.16500 119244.000000
3330 12240 1 0.16500 119244.000000
3330 13360 1 0.16500 119244.000000
3331 12240 1 0.16500 119244.000000
3331 12830 1 0.16500 119244.000000
3332 12240 1 0.16500 119244.000000
3332 17174 1 0.16500 119244.000000
3333 19206 1 0.16500 119244.000000
3333 21720 1 0.16500 119244.000000
3334 14024 1 0.16500 119244.000000
3334 19206 1 0.16500 119244.000000
3335 13987 1 0.16500 119244.000000
3335 19206 1 0.16500 119244.000000
3336 12241 1 0.16500 119244.000000
3336 15352 1 0.16500 119244.000000
3337 12241 1 0.16500 119244.000000
3337 12671 1 0.16500 119244.000000
3338 12242 1 0.16500 119244.000000
3338 22092 1 0.16500 119244.000000
3339 12242 1 0.16500 119244.000000
3339 15913 1 0.16500 119244.000000
3340 12243 1 0.16500 119244.000000
3340 13592 1 0.16500 119244.000000
3341 12243 1 0.16500 119244.000000
3341 13201 1 0.16500 119244.000000
3342 12243 1 0.16500 119244.000000
3342 13302 1 0.16500 119244.000000
3343 12243 1 0.16500 119244.000000
3343 15749 1 0.16500 119244.000000
3344 12244 1 0.16500 119244.000000
3344 13754 1 0.16500 119244.000000
3345 12244 1 0.16500 119244.000000
3345 21906 1 0.16500 119244.000000
3346 12244 1 0.16500 119244.000000
3346 12606 1 0.16500 119244.000000
3347 12244 1 0.16500 119244.000000
3347 18280 1 0.16500 119244.000000
3348 12245 1 0.16500 119244.000000
3348 14697 1 0.16500 119244.000000
3349 12245 1 0.16500 119244.000000
3349 14450 1 0.16500 119244.000000
3350 12245 1 0.16500 119244.000000
3350 12570 1 0.16500 119244.000000
3351 13791 1 0.16500 119244.000000
3351 19218 1 0.16500 119244.000000
3352 15145 1 0.16500 119244.000000
3352 19218 1 0.16500 119244.000000
3353 16247 1 0.16500 119244.000000
3353 19218 1 0.16500 119244.000000
3354 12246 1 0.16500 119244.000000
3354 14562 1 0.16500 119244.000000
3355 12246 1 0.16500 119244.000000
3355 16105 1 0.16500 119244.000000
3356 12246 1 0.16500 119244.000000
3356 14600 1 0.16500 119244.000000
3357 14021 1 0.16500 119244.000000
3357 16516 1 0.16500 119244.000000
3358 12247 1 0.16500 119244.000000
3358 20610 1 0.16500 119244.000000
3359 12247 1 0.16500 119244.000000
3359 14021 1 0.16500 119244.000000
3360 12247 1 0.16500 119244.000000
3360 12458 1 0.16500 119244.000000
3361 12248 1 0.16500 119244.000000
3361 14504 1 0.16500 119244.000000
3362 12248 1 0.16500 119244.000000
3362 16229 1 0.16500 119244.000000
3363 12248 1 0.16500 119244.000000
3363 13015 1 0.16500 119244.000000
3364 12249 1 0.16500 119244.000000
3364 12489 1 0.16500 119244.000000
3365 12249 1 0.16500 119244.000000
3365 19614 1 0.16500 119244.000000
3366 13497 1 0.16500 119244.000000
3366 16320 1 0.16500 119244.000000
3367 12249 1 0.16500 119244.000000
3367 13497 1 0.16500 119244.000000
3368 12250 1 0.16500 119244.000000
3368 13140 1 0.16500 119244.000000
3369 12250 1 0.16500 119244.000000
3369 13150 1 0.16500 119244.000000
3370 12250 1 0.16500 119244.000000
3370 15691 1 0.16500 119244.000000
3371 13352 1 0.16500 119244.000000
3371 19230 1 0.16500 119244.000000
3372 12251 1 0.16500 119244.000000
3372 21450 1 0.16500 119244.000000
3373 12251 1 0.16500 119244.000000
3373 13130 1 0.16500 119244.000000
3374 12251 1 0.16500 119244.000000
3374 12268 1 0.16500 119244.000000
3375 12251 1 0.16500 119244.000000
3375 15329 1 0.16500 119244.000000
3376 14553 1 0.16500 119244.000000
3376 19242 1 0.16500 119244.000000
3377 15296 1 0.16500 119244.000000
3377 19242 1 0.16500 119244.000000
3378 15253 1 0.16500 119244.000000
3378 19242 1 0.16500 119244.000000
3379 13337 1 0.16500 119244.000000
3379 19254 1 0.16500 119244.000000
3380 19254 1 0.16500 119244.000000
3380 22041 1 0.16500 119244.000000
3381 12252 1 0.16500 119244.000000
3381 14724 1 0.16500 119244.000000
3382 12252 1 0.16500 119244.000000
3382 14612 1 0.16500 119244.000000
3383 12252 1 0.16500 119244.000000
3383 12731 1 0.16500 119244.000000
3384 12252 1 0.16500 119244.000000
3384 13993 1 0.16500 119244.000000
3385 14905 1 0.16500 119244.000000
3385 19266 1 0.16500 119244.000000
3386 12781 1 0.16500 119244.000000
3386 19266 1 0.16500 119244.000000
3387 13429 1 0.16500 119244.000000
3387 19266 1 0.16500 119244.000000
3388 12253 1 0.16500 119244.000000
3388 15834 1 0.16500 119244.000000
3389 12253 1 0.16500 119244.000000
3389 13069 1 0.16500 119244.000000
3390 12253 1 0.16500 119244.000000
3390 14372 1 0.16500 119244.000000
3391 12253 1 0.16500 119244.000000
3391 13635 1 0.16500 119244.000000
3392 12254 1 0.16500 119244.000000
3392 14213 1 0.16500 119244.000000
3393 12254 1 0.16500 119244.000000
3393 12872 1 0.16500 119244.000000
3394 12254 1 0.16500 119244.000000
3394 16445 1 0.16500 119244.000000
3395 12254 1 0.16500 119244.000000
3395 13607 1 0.16500 119244.000000
3396 12255 1 0.16500 119244.000000
3396 12516 1 0.16500 119244.000000
3397 12255 1 0.16500 119244.000000
3397 14145 1 0.16500 119244.000000
3398 12255 1 0.16500 119244.000000
3398 16400 1 0.16500 119244.000000
3399 12256 1 0.16500 119244.000000
3399 15959 1 0.16500 119244.000000
3400 12256 1 0.16500 119244.000000
3400 13425 1 0.16500 119244.000000
3401 12256 1 0.16500 119244.000000
3401 13834 1 0.16500 119244.000000
3402 12257 1 0.16500 119244.000000
3402 14728 1 0.16500 119244.000000
3403 12257 1 0.16500 119244.000000
3403 13702 1 0.16500 119244.000000
3404 12257 1 0.16500 119244.000000
3404 15209 1 0.16500 119244.000000
3405 12257 1 0.16500 119244.000000
3405 14148 1 0.16500 119244.000000
3406 12258 1 0.16500 119244.000000
3406 16119 1 0.16500 119244.000000
3407 12555 1 0.16500 119244.000000
3407 14833 1 0.16500 119244.000000
3408 12259 1 0.16500 119244.000000
3408 12555 1 0.16500 119244.000000
3409 12259 1 0.16500 119244.000000
3409 15169 1 0.16500 119244.000000
3410 12260 1 0.16500 119244.000000
3410 16173 1 0.16500 119244.000000
3411 12260 1 0.16500 119244.000000
3411 16344 1 0.16500 119244.000000
3412 12260 1 0.16500 119244.000000
3412 14403 1 0.16500 119244.000000
3413 12260 1 0.16500 119244.000000
3413 16251 1 0.16500 119244.000000
3414 12261 1 0.16500 119244.000000
3414 13018 1 0.16500 119244.000000
3415 13018 1 0.16500 119244.000000
3415 14030 1 0.16500 119244.000000
3416 12261 1 0.16500 119244.000000
3416 12842 1 0.16500 119244.000000
3417 14615 1 0.16500 119244.000000
3417 19278 1 0.16500 119244.000000
3418 19278 1 0.16500 119244.000000
3418 22384 1 0.16500 119244.000000
3419 13356 1 0.16500 119244.000000
3419 19278 1 0.16500 119244.000000
3420 12262 1 0.16500 119244.000000
3420 14580 1 0.16500 119244.000000
3421 12262 1 0.16500 119244.000000
3421 15010 1 0.16500 119244.000000
3422 12262 1 0.16500 119244.000000
3422 15553 1 0.16500 119244.000000
3423 12262 1 0.16500 119244.000000
3423 15590 1 0.16500 119244.000000
3424 12263 1 0.16500 119244.000000
3424 15539 1 0.16500 119244.000000
3425 12263 1 0.16500 119244.000000
3425 21588 1 0.16500 119244.000000
3426 12264 1 0.16500 119244.000000
3426 15406 1 0.16500 119244.000000
3427 12264 1 0.16500 119244.000000
3427 13961 1 0.16500 119244.000000
3428 12264 1 0.16500 119244.000000
3428 15902 1 0.16500 119244.000000
3429 12264 1 0.16500 119244.000000
3429 14609 1 0.16500 119244.000000
3430 15229 1 0.16500 119244.000000
3430 19290 1 0.16500 119244.000000
3431 14354 1 0.16500 119244.000000
3431 19290 1 0.16500 119244.000000
3432 12123 1 0.16500 119244.000000
3432 12265 1 0.16500 119244.000000
3433 12265 1 0.16500 119244.000000
3433 14023 1 0.16500 119244.000000
3434 12149 1 0.16500 119244.000000
3434 12278 1 0.16500 119244.000000
3435 12266 1 0.16500 119244.000000
3435 14638 1 0.16500 119244.000000
3436 12266 1 0.16500 119244.000000
3436 12306 1 0.16500 119244.000000
3437 12266 1 0.16500 119244.000000
3437 14821 1 0.16500 119244.000000
3438 12266 1 0.16500 119244.000000
3438 14576 1 0.16500 119244.000000
3439 12267 1 0.16500 119244.000000
3439 12872 1 0.16500 119244.000000
3440 12267 1 0.16500 119244.000000
3440 12923 1 0.16500 119244.000000
3441 12267 1 0.16500 119244.000000
3441 16318 1 0.16500 119244.000000
3442 12267 1 0.16500 119244.000000
3442 15385 1 0.16500 119244.000000
3443 12268 1 0.16500 119244.000000
3443 21732 1 0.16500 119244.000000
3444 12269 1 0.16500 119244.000000
3444 12997 1 0.16500 119244.000000
3445 12269 1 0.16500 119244.000000
3445 13395 1 0.16500 119244.000000
3446 12269 1 0.16500 119244.000000
3446 13653 1 0.16500 119244.000000
3447 12269 1 0.16500 119244.000000
3447 13454 1 0.16500 119244.000000
3448 12270 1 0.16500 119244.000000
3448 12885 1 0.16500 119244.000000
3449 12270 1 0.16500 119244.000000
3449 14479 1 0.16500 119244.000000
3450 12207 1 0.16500 119244.000000
3450 12270 1 0.16500 119244.000000
3451 12270 1 0.16500 119244.000000
3451 15579 1 0.16500 119244.000000
3452 12271 1 0.16500 119244.000000
3452 14503 1 0.16500 119244.000000
3453 12271 1 0.16500 119244.000000
3453 13202 1 0.16500 119244.000000
3454 12272 1 0.16500 119244.000000
3454 14619 1 0.16500 119244.000000
3455 12272 1 0.16500 119244.000000
3455 12303 1 0.16500 119244.000000
3456 12272 1 0.16500 119244.000000
3456 15647 1 0.16500 119244.000000
3457 12273 1 0.16500 119244.000000
3457 16103 1 0.16500 119244.000000
3458 14641 1 0.16500 119244.000000
3458 16453 1 0.16500 119244.000000
3459 12273 1 0.16500 119244.000000
3459 12843 1 0.16500 119244.000000
3460 12274 1 0.16500 119244.000000
3460 15545 1 0.16500 119244.000000
3461 12274 1 0.16500 119244.000000
3461 14193 1 0.16500 119244.000000
3462 12274 1 0.16500 119244.000000
3462 15746 1 0.16500 119244.000000
3463 12274 1 0.16500 119244.000000
3463 22323 1 0.16500 119244.000000
3464 11535 1 0.16500 119244.000000
3464 12275 1 0.16500 119244.000000
3465 12275 1 0.16500 119244.000000
3465 14687 1 0.16500 119244.000000
3466 12275 1 0.16500 119244.000000
3466 15050 1 0.16500 119244.000000
3467 12275 1 0.16500 119244.000000
3467 15893 1 0.16500 119244.000000
3468 12276 1 0.16500 119244.000000
3468 15820 1 0.16500 119244.000000
3469 12276 1 0.16500 119244.000000
3469 14015 1 0.16500 119244.000000
3470 12276 1 0.16500 119244.000000
3470 22239 1 0.16500 119244.000000
3471 12277 1 0.16500 119244.000000
3471 13508 1 0.16500 119244.000000
3472 12277 1 0.16500 119244.000000
3472 14866 1 0.16500 119244.000000
3473 12277 1 0.16500 119244.000000
3473 14862 1 0.16500 119244.000000
3474 12277 1 0.16500 119244.000000
3474 13320 1 0.16500 119244.000000
3475 12278 1 0.16500 119244.000000
3475 15519 1 0.16500 119244.000000
3476 12278 1 0.16500 119244.000000
3476 14246 1 0.16500 119244.000000
3477 12355 1 0.16500 119244.000000
3477 19302 1 0.16500 119244.000000
3478 19302 1 0.16500 119244.000000
3478 21681 1 0.16500 119244.000000
3479 19302 1 0.16500 119244.000000
3479 21522 1 0.16500 119244.000000
3480 12279 1 0.16500 119244.000000
3480 13324 1 0.16500 119244.000000
3481 12279 1 0.16500 119244.000000
3481 15829 1 0.16500 119244.000000
3482 12279 1 0.16500 119244.000000
3482 14123 1 0.16500 119244.000000
3483 12279 1 0.16500 119244.000000
3483 13844 1 0.16500 119244.000000
3484 12280 1 0.16500 119244.000000
3484 14826 1 0.16500 119244.000000
3485 12280 1 0.16500 119244.000000
3485 16515 1 0.16500 119244.000000
3486 12281 1 0.16500 119244.000000
3486 15368 1 0.16500 119244.000000
3487 12281 1 0.16500 119244.000000
3487 13318 1 0.16500 119244.000000
3488 12281 1 0.16500 119244.000000
3488 14738 1 0.16500 119244.000000
3489 12282 1 0.16500 119244.000000
3489 16350 1 0.16500 119244.000000
3490 12282 1 0.16500 119244.000000
3490 19074 1 0.16500 119244.000000
3491 12282 1 0.16500 119244.000000
3491 13108 1 0.16500 119244.000000
3492 21294 1 0.16500 119244.000000
3492 21969 1 0.16500 119244.000000
3493 21294 1 0.16500 119244.000000
3493 22017 1 0.16500 119244.000000
3494 16070 1 0.16500 119244.000000
3494 21708 1 0.16500 119244.000000
3495 12283 1 0.16500 119244.000000
3495 13618 1 0.16500 119244.000000
3496 12283 1 0.16500 119244.000000
3496 15023 1 0.16500 119244.000000
3497 12283 1 0.16500 119244.000000
3497 15730 1 0.16500 119244.000000
3498 12283 1 0.16500 119244.000000
3498 14817 1 0.16500 119244.000000
3499 12284 1 0.16500 119244.000000
3499 16188 1 0.16500 119244.000000
3500 12284 1 0.16500 119244.000000
3500 19518 1 0.16500 119244.000000
3501 12284 1 0.16500 119244.000000
3501 13817 1 0.16500 119244.000000
3502 12284 1 0.16500 119244.000000
3502 14783 1 0.16500 119244.000000
3503 12285 1 0.16500 119244.000000
3503 13443 1 0.16500 119244.000000
3504 12285 1 0.16500 119244.000000
3504 21486 1 0.16500 119244.000000
3505 12285 1 0.16500 119244.000000
3505 16024 1 0.16500 119244.000000
3506 12286 1 0.16500 119244.000000
3506 14221 1 0.16500 119244.000000
3507 12286 1 0.16500 119244.000000
3507 14961 1 0.16500 119244.000000
3508 12286 1 0.16500 119244.000000
3508 14813 1 0.16500 119244.000000
3509 12286 1 0.16500 119244.000000
3509 15793 1 0.16500 119244.000000
3510 12287 1 0.16500 119244.000000
3510 13773 1 0.16500 119244.000000
3511 12287 1 0.16500 119244.000000
3511 13786 1 0.16500 119244.000000
3512 12287 1 0.16500 119244.000000
3512 14966 1 0.16500 119244.000000
3513 12287 1 0.16500 119244.000000
3513 16252 1 0.16500 119244.000000
3514 12288 1 0.16500 119244.000000
3514 14860 1 0.16500 119244.000000
3515 12288 1 0.16500 119244.000000
3515 15817 1 0.16500 119244.000000
3516 12289 1 0.16500 119244.000000
3516 15308 1 0.16500 119244.000000
3517 12289 1 0.16500 119244.000000
3517 12603 1 0.16500 119244.000000
3518 12290 1 0.16500 119244.000000
3518 14136 1 0.16500 119244.000000
3519 12290 1 0.16500 119244.000000
3519 13539 1 0.16500 119244.000000
3520 12290 1 0.16500 119244.000000
3520 12982 1 0.16500 119244.000000
3521 12291 1 0.16500 119244.000000
3521 15759 1 0.16500 119244.000000
3522 12291 1 0.16500 119244.000000
3522 13319 1 0.16500 119244.000000
3523 12291 1 0.16500 119244.000000
3523 15872 1 0.16500 119244.000000
3524 12291 1 0.16500 119244.000000
3524 15866 1 0.16500 119244.000000
3525 19314 1 0.16500 119244.000000
3525 21702 1 0.16500 119244.000000
3526 15357 1 0.16500 119244.000000
3526 19314 1 0.16500 119244.000000
3527 19314 1 0.16500 119244.000000
3527 21951 1 0.16500 119244.000000
3528 12292 1 0.16500 119244.000000
3528 16385 1 0.16500 119244.000000
3529 12292 1 0.16500 119244.000000
3529 16117 1 0.16500 119244.000000
3530 12292 1 0.16500 119244.000000
3530 15585 1 0.16500 119244.000000
3531 12293 1 0.16500 119244.000000
3531 13858 1 0.16500 119244.000000
3532 12293 1 0.16500 119244.000000
3532 13209 1 0.16500 119244.000000
3533 12293 1 0.16500 119244.000000
3533 13666 1 0.16500 119244.000000
3534 12293 1 0.16500 119244.000000
3534 15703 1 0.16500 119244.000000
3535 12294 1 0.16500 119244.000000
3535 12750 1 0.16500 119244.000000
3536 12294 1 0.16500 119244.000000
3536 16515 1 0.16500 119244.000000
3537 12294 1 0.16500 119244.000000
3537 18336 1 0.16500 119244.000000
3538 12295 1 0.16500 119244.000000
3538 16441 1 0.16500 119244.000000
3539 12295 1 0.16500 119244.000000
3539 20346 1 0.16500 119244.000000
3540 12295 1 0.16500 119244.000000
3540 17090 1 0.16500 119244.000000
3541 12295 1 0.16500 119244.000000
3541 14091 1 0.16500 119244.000000
3542 12296 1 0.16500 119244.000000
3542 12476 1 0.16500 119244.000000
3543 12296 1 0.16500 119244.000000
3543 22379 1 0.16500 119244.000000
3544 12296 1 0.16500 119244.000000
3544 14291 1 0.16500 119244.000000
3545 12296 1 0.16500 119244.000000
3545 14496 1 0.16500 119244.000000
3546 12297 1 0.16500 119244.000000
3546 15904 1 0.16500 119244.000000
3547 12297 1 0.16500 119244.000000
3547 12651 1 0.16500 119244.000000
3548 12297 1 0.16500 119244.000000
3548 14718 1 0.16500 119244.000000
3549 12298 1 0.16500 119244.000000
3549 21579 1 0.16500 119244.000000
3550 12298 1 0.16500 119244.000000
3550 14646 1 0.16500 119244.000000
3551 12298 1 0.16500 119244.000000
3551 14768 1 0.16500 119244.000000
3552 12298 1 0.16500 119244.000000
3552 15415 1 0.16500 119244.000000
3553 12299 1 0.16500 119244.000000
3553 14236 1 0.16500 119244.000000
3554 12299 1 0.16500 119244.000000
3554 13733 1 0.16500 119244.000000
3555 12300 1 0.16500 119244.000000
3555 16244 1 0.16500 119244.000000
3556 12300 1 0.16500 119244.000000
3556 12532 1 0.16500 119244.000000
3557 12300 1 0.16500 119244.000000
3557 16290 1 0.16500 119244.000000
3558 12300 1 0.16500 119244.000000
3558 14991 1 0.16500 119244.000000
3559 19326 1 0.16500 119244.000000
3559 21972 1 0.16500 119244.000000
3560 17846 1 0.16500 119244.000000
3560 19326 1 0.16500 119244.000000
3561 13754 1 0.16500 119244.000000
3561 19326 1 0.16500 119244.000000
3562 15822 1 0.16500 119244.000000
3562 16442 1 0.16500 119244.000000
3563 12301 1 0.16500 119244.000000
3563 12391 1 0.16500 119244.000000
3564 12301 1 0.16500 119244.000000
3564 15822 1 0.16500 119244.000000
3565 12907 1 0.16500 119244.000000
3565 15822 1 0.16500 119244.000000
3566 13599 1 0.16500 119244.000000
3566 19338 1 0.16500 119244.000000
3567 19338 1 0.16500 119244.000000
3567 22113 1 0.16500 119244.000000
3568 19338 1 0.16500 119244.000000
3568 21948 1 0.16500 119244.000000
3569 19350 1 0.16500 119244.000000
3569 22444 1 0.16500 119244.000000
3570 15796 1 0.16500 119244.000000
3570 19350 1 0.16500 119244.000000
3571 12302 1 0.16500 119244.000000
3571 14577 1 0.16500 119244.000000
3572 12302 1 0.16500 119244.000000
3572 13316 1 0.16500 119244.000000
3573 12302 1 0.16500 119244.000000
3573 14419 1 0.16500 119244.000000
3574 12302 1 0.16500 119244.000000
3574 12542 1 0.16500 119244.000000
3575 12303 1 0.16500 119244.000000
3575 12887 1 0.16500 119244.000000
3576 12303 1 0.16500 119244.000000
3576 16230 1 0.16500 119244.000000
3577 11790 1 0.16500 119244.000000
3577 13324 1 0.16500 119244.000000
3578 12304 1 0.16500 119244.000000
3578 13442 1 0.16500 119244.000000
3579 12304 1 0.16500 119244.000000
3579 14123 1 0.16500 119244.000000
3580 12305 1 0.16500 119244.000000
3580 16186 1 0.16500 119244.000000
3581 12305 1 0.16500 119244.000000
3581 15627 1 0.16500 119244.000000
3582 12305 1 0.16500 119244.000000
3582 15389 1 0.16500 119244.000000
3583 12306 1 0.16500 119244.000000
3583 14351 1 0.16500 119244.000000
3584 12307 1 0.16500 119244.000000
3584 15159 1 0.16500 119244.000000
3585 12307 1 0.16500 119244.000000
3585 15571 1 0.16500 119244.000000
3586 12307 1 0.16500 119244.000000
3586 12995 1 0.16500 119244.000000
3587 13120 1 0.16500 119244.000000
3587 16257 1 0.16500 119244.000000
3588 12308 1 0.16500 119244.000000
3588 13120 1 0.16500 119244.000000
3589 12308 1 0.16500 119244.000000
3589 16351 1 0.16500 119244.000000
3590 12308 1 0.16500 119244.000000
3590 13232 1 0.16500 119244.000000
3591 12309 1 0.16500 119244.000000
3591 15508 1 0.16500 119244.000000
3592 12309 1 0.16500 119244.000000
3592 12637 1 0.16500 119244.000000
3593 12309 1 0.16500 119244.000000
3593 12983 1 0.16500 119244.000000
3594 12309 1 0.16500 119244.000000
3594 15166 1 0.16500 119244.000000
3595 12310 1 0.16500 119244.000000
3595 13803 1 0.16500 119244.000000
3596 12310 1 0.16500 119244.000000
3596 15913 1 0.16500 119244.000000
3597 12310 1 0.16500 119244.000000
3597 14385 1 0.16500 119244.000000
3598 12311 1 0.16500 119244.000000
3598 14920 1 0.16500 119244.000000
3599 12311 1 0.16500 119244.000000
3599 12490 1 0.16500 119244.000000
3600 12311 1 0.16500 119244.000000
3600 12402 1 0.16500 119244.000000
3601 19362 1 0.16500 119244.000000
3601 21843 1 0.16500 119244.000000
3602 12312 1 0.16500 119244.000000
3602 14602 1 0.16500 119244.000000
3603 12312 1 0.16500 119244.000000
3603 20646 1 0.16500 119244.000000
3604 12312 1 0.16500 119244.000000
3604 20634 1 0.16500 119244.000000
3605 12313 1 0.16500 119244.000000
3605 14324 1 0.16500 119244.000000
3606 12313 1 0.16500 119244.000000
3606 13968 1 0.16500 119244.000000
3607 12313 1 0.16500 119244.000000
3607 14360 1 0.16500 119244.000000
3608 12313 1 0.16500 119244.000000
3608 14242 1 0.16500 119244.000000
3609 12314 1 0.16500 119244.000000
3609 15116 1 0.16500 119244.000000
3610 12314 1 0.16500 119244.000000
3610 14175 1 0.16500 119244.000000
3611 12314 1 0.16500 119244.000000
3611 16022 1 0.16500 119244.000000
3612 12314 1 0.16500 119244.000000
3612 15297 1 0.16500 119244.000000
3613 12315 1 0.16500 119244.000000
3613 14830 1 0.16500 119244.000000
3614 12315 1 0.16500 119244.000000
3614 12727 1 0.16500 119244.000000
3615 12315 1 0.16500 119244.000000
3615 14946 1 0.16500 119244.000000
3616 12315 1 0.16500 119244.000000
3616 13276 1 0.16500 119244.000000
3617 11751 1 0.16500 119244.000000
3617 15044 1 0.16500 119244.000000
3618 12316 1 0.16500 119244.000000
3618 13683 1 0.16500 119244.000000
3619 12316 1 0.16500 119244.000000
3619 12962 1 0.16500 119244.000000
3620 12317 1 0.16500 119244.000000
3620 15199 1 0.16500 119244.000000
3621 12317 1 0.16500 119244.000000
3621 14462 1 0.16500 119244.000000
3622 12317 1 0.16500 119244.000000
3622 15622 1 0.16500 119244.000000
3623 12318 1 0.16500 119244.000000
3623 12624 1 0.16500 119244.000000
3624 12318 1 0.16500 119244.000000
3624 15664 1 0.16500 119244.000000
3625 15664 1 0.16500 119244.000000
3625 20118 1 0.16500 119244.000000
3626 12318 1 0.16500 119244.000000
3626 16306 1 0.16500 119244.000000
3627 19374 1 0.16500 119244.000000
3627 19926 1 0.16500 119244.000000
3628 20562 1 0.16500 119244.000000
3628 21777 1 0.16500 119244.000000
3629 12319 1 0.16500 119244.000000
3629 13732 1 0.16500 119244.000000
3630 13732 1 0.16500 119244.000000
3630 15532 1 0.16500 119244.000000
3631 12319 1 0.16500 119244.000000
3631 15172 1 0.16500 119244.000000
3632 12320 1 0.16500 119244.000000
3632 12807 1 0.16500 119244.000000
3633 12320 1 0.16500 119244.000000
3633 22459 1 0.16500 119244.000000
3634 12320 1 0.16500 119244.000000
3634 13678 1 0.16500 119244.000000
3635 17608 1 0.16500 119244.000000
3635 22459 1 0.16500 119244.000000
3636 12321 1 0.16500 119244.000000
3636 15921 1 0.16500 119244.000000
3637 12321 1 0.16500 119244.000000
3637 14009 1 0.16500 119244.000000
3638 12322 1 0.16500 119244.000000
3638 15615 1 0.16500 119244.000000
3639 12322 1 0.16500 119244.000000
3639 15636 1 0.16500 119244.000000
3640 12322 1 0.16500 119244.000000
3640 16162 1 0.16500 119244.000000
3641 12322 1 0.16500 119244.000000
3641 14135 1 0.16500 119244.000000
3642 12323 1 0.16500 119244.000000
3642 15490 1 0.16500 119244.000000
3643 12323 1 0.16500 119244.000000
3643 14981 1 0.16500 119244.000000
3644 12324 1 0.16500 119244.000000
3644 17594 1 0.16500 119244.000000
3645 12324 1 0.16500 119244.000000
3645 20694 1 0.16500 119244.000000
3646 12325 1 0.16500 119244.000000
3646 14219 1 0.16500 119244.000000
3647 12325 1 0.16500 119244.000000
3647 13415 1 0.16500 119244.000000
3648 12325 1 0.16500 119244.000000
3648 12907 1 0.16500 119244.000000
3649 12326 1 0.16500 119244.000000
3649 13199 1 0.16500 119244.000000
3650 12326 1 0.16500 119244.000000
3650 15179 1 0.16500 119244.000000
3651 12327 1 0.16500 119244.000000
3651 15773 1 0.16500 119244.000000
3652 12327 1 0.16500 119244.000000
3652 12451 1 0.16500 119244.000000
3653 12327 1 0.16500 119244.000000
3653 16200 1 0.16500 119244.000000
3654 12328 1 0.16500 119244.000000
3654 13132 1 0.16500 119244.000000
3655 11913 1 0.16500 119244.000000
3655 13810 1 0.16500 119244.000000
3656 12328 1 0.16500 119244.000000
3656 13980 1 0.16500 119244.000000
3657 12328 1 0.16500 119244.000000
3657 13810 1 0.16500 119244.000000
3658 12329 1 0.16500 119244.000000
3658 16207 1 0.16500 119244.000000
3659 12329 1 0.16500 119244.000000
3659 14970 1 0.16500 119244.000000
3660 12329 1 0.16500 119244.000000
3660 15051 1 0.16500 119244.000000
3661 12330 1 0.16500 119244.000000
3661 14766 1 0.16500 119244.000000
3662 12330 1 0.16500 119244.000000
3662 15622 1 0.16500 119244.000000
3663 12330 1 0.16500 119244.000000
3663 14970 1 0.16500 119244.000000
3664 12331 1 0.16500 119244.000000
3664 12544 1 0.16500 119244.000000
3665 12331 1 0.16500 119244.000000
3665 13276 1 0.16500 119244.000000
3666 12331 1 0.16500 119244.000000
3666 13802 1 0.16500 119244.000000
3667 12331 1 0.16500 119244.000000
3667 14007 1 0.16500 119244.000000
3668 12332 1 0.16500 119244.000000
3668 14731 1 0.16500 119244.000000
3669 12332 1 0.16500 119244.000000
3669 14603 1 0.16500 119244.000000
3670 12332 1 0.16500 119244.000000
3670 12417 1 0.16500 119244.000000
3671 12332 1 0.16500 119244.000000
3671 16032 1 0.16500 119244.000000
3672 12333 1 0.16500 119244.000000
3672 13107 1 0.16500 119244.000000
3673 12333 1 0.16500 119244.000000
3673 14412 1 0.16500 119244.000000
3674 12333 1 0.16500 119244.000000
3674 14156 1 0.16500 119244.000000
3675 12333 1 0.16500 119244.000000
3675 14461 1 0.16500 119244.000000
3676 16287 1 0.16500 119244.000000
3676 19386 1 0.16500 119244.000000
3677 19386 1 0.16500 119244.000000
3677 21858 1 0.16500 119244.000000
3678 12334 1 0.16500 119244.000000
3678 15422 1 0.16500 119244.000000
3679 12334 1 0.16500 119244.000000
3679 12721 1 0.16500 119244.000000
3680 12334 1 0.16500 119244.000000
3680 15553 1 0.16500 119244.000000
3681 12335 1 0.16500 119244.000000
3681 15497 1 0.16500 119244.000000
3682 12335 1 0.16500 119244.000000
3682 13805 1 0.16500 119244.000000
3683 12336 1 0.16500 119244.000000
3683 15875 1 0.16500 119244.000000
3684 12336 1 0.16500 119244.000000
3684 16108 1 0.16500 119244.000000
3685 12336 1 0.16500 119244.000000
3685 15455 1 0.16500 119244.000000
3686 12337 1 0.16500 119244.000000
3686 12777 1 0.16500 119244.000000
3687 12337 1 0.16500 119244.000000
3687 12513 1 0.16500 119244.000000
3688 12338 1 0.16500 119244.000000
3688 12781 1 0.16500 119244.000000
3689 12338 1 0.16500 119244.000000
3689 15630 1 0.16500 119244.000000
3690 12338 1 0.16500 119244.000000
3690 15903 1 0.16500 119244.000000
3691 12339 1 0.16500 119244.000000
3691 14341 1 0.16500 119244.000000
3692 12339 1 0.16500 119244.000000
3692 15287 1 0.16500 119244.000000
3693 12339 1 0.16500 119244.000000
3693 13090 1 0.16500 119244.000000
3694 12340 1 0.16500 119244.000000
3694 16305 1 0.16500 119244.000000
3695 11522 1 0.16500 119244.000000
3695 12340 1 0.16500 119244.000000
3696 12340 1 0.16500 119244.000000
3696 14735 1 0.16500 119244.000000
3697 12340 1 0.16500 119244.000000
3697 16324 1 0.16500 119244.000000
3698 12341 1 0.16500 119244.000000
3698 13704 1 0.16500 119244.000000
3699 12341 1 0.16500 119244.000000
3699 13651 1 0.16500 119244.000000
3700 12341 1 0.16500 119244.000000
3700 15087 1 0.16500 119244.000000
3701 12341 1 0.16500 119244.000000
3701 12585 1 0.16500 119244.000000
3702 12342 1 0.16500 119244.000000
3702 13305 1 0.16500 119244.000000
3703 12342 1 0.16500 119244.000000
3703 13844 1 0.16500 119244.000000
3704 12343 1 0.16500 119244.000000
3704 14827 1 0.16500 119244.000000
3705 12343 1 0.16500 119244.000000
3705 15825 1 0.16500 119244.000000
3706 12343 1 0.16500 119244.000000
3706 12407 1 0.16500 119244.000000
3707 12343 1 0.16500 119244.000000
3707 13589 1 0.16500 119244.000000
3708 13073 1 0.16500 119244.000000
3708 14031 1 0.16500 119244.000000
3709 12344 1 0.16500 119244.000000
3709 13073 1 0.16500 119244.000000
3710 12344 1 0.16500 119244.000000
3710 16464 1 0.16500 119244.000000
3711 12344 1 0.16500 119244.000000
3711 15963 1 0.16500 119244.000000
3712 12345 1 0.16500 119244.000000
3712 13310 1 0.16500 119244.000000
3713 12345 1 0.16500 119244.000000
3713 12738 1 0.16500 119244.000000
3714 13310 1 0.16500 119244.000000
3714 14010 1 0.16500 119244.000000
3715 12345 1 0.16500 119244.000000
3715 15069 1 0.16500 119244.000000
3716 12346 1 0.16500 119244.000000
3716 15850 1 0.16500 119244.000000
3717 12346 1 0.16500 119244.000000
3717 12801 1 0.16500 119244.000000
3718 12346 1 0.16500 119244.000000
3718 16097 1 0.16500 119244.000000
3719 12346 1 0.16500 119244.000000
3719 13354 1 0.16500 119244.000000
3720 12347 1 0.16500 119244.000000
3720 13556 1 0.16500 119244.000000
3721 12347 1 0.16500 119244.000000
3721 12562 1 0.16500 119244.000000
3722 12347 1 0.16500 119244.000000
3722 13977 1 0.16500 119244.000000
3723 12348 1 0.16500 119244.000000
3723 14224 1 0.16500 119244.000000
3724 12348 1 0.16500 119244.000000
3724 13927 1 0.16500 119244.000000
3725 12348 1 0.16500 119244.000000
3725 12676 1 0.16500 119244.000000
3726 12349 1 0.16500 119244.000000
3726 15418 1 0.16500 119244.000000
3727 12349 1 0.16500 119244.000000
3727 22038 1 0.16500 119244.000000
3728 12350 1 0.16500 119244.000000
3728 13383 1 0.16500 119244.000000
3729 13215 1 0.16500 119244.000000
3729 13383 1 0.16500 119244.000000
3730 12350 1 0.16500 119244.000000
3730 15246 1 0.16500 119244.000000
3731 12350 1 0.16500 119244.000000
3731 16147 1 0.16500 119244.000000
3732 12351 1 0.16500 119244.000000
3732 16384 1 0.16500 119244.000000
3733 12351 1 0.16500 119244.000000
3733 12924 1 0.16500 119244.000000
3734 12351 1 0.16500 119244.000000
3734 14318 1 0.16500 119244.000000
3735 12351 1 0.16500 119244.000000
3735 16423 1 0.16500 119244.000000
3736 19398 1 0.16500 119244.000000
3736 22344 1 0.16500 119244.000000
3737 15847 1 0.16500 119244.000000
3737 19398 1 0.16500 119244.000000
3738 12352 1 0.16500 119244.000000
3738 16479 1 0.16500 119244.000000
3739 12247 1 0.16500 119244.000000
3739 12352 1 0.16500 119244.000000
3740 12352 1 0.16500 119244.000000
3740 22020 1 0.16500 119244.000000
3741 12353 1 0.16500 119244.000000
3741 14285 1 0.16500 119244.000000
3742 12353 1 0.16500 119244.000000
3742 16017 1 0.16500 119244.000000
3743 12353 1 0.16500 119244.000000
3743 12879 1 0.16500 119244.000000
3744 12353 1 0.16500 119244.000000
3744 15476 1 0.16500 119244.000000
3745 12354 1 0.16500 119244.000000
3745 14846 1 0.16500 119244.000000
3746 12354 1 0.16500 119244.000000
3746 16469 1 0.16500 119244.000000
3747 12354 1 0.16500 119244.000000
3747 13037 1 0.16500 119244.000000
3748 12354 1 0.16500 119244.000000
3748 16410 1 0.16500 119244.000000
3749 12355 1 0.16500 119244.000000
3749 12903 1 0.16500 119244.000000
3750 12355 1 0.16500 119244.000000
3750 16424 1 0.16500 119244.000000
3751 12356 1 0.16500 119244.000000
3751 12786 1 0.16500 119244.000000
3752 12356 1 0.16500 119244.000000
3752 16361 1 0.16500 119244.000000
3753 12356 1 0.16500 119244.000000
3753 12741 1 0.16500 119244.000000
3754 12356 1 0.16500 119244.000000
3754 12403 1 0.16500 119244.000000
3755 12357 1 0.16500 119244.000000
3755 13609 1 0.16500 119244.000000
3756 12357 1 0.16500 119244.000000
3756 14204 1 0.16500 119244.000000
3757 12357 1 0.16500 119244.000000
3757 16107 1 0.16500 119244.000000
3758 12357 1 0.16500 119244.000000
3758 12629 1 0.16500 119244.000000
3759 12022 1 0.16500 119244.000000
3759 12593 1 0.16500 119244.000000
3760 12358 1 0.16500 119244.000000
3760 14839 1 0.16500 119244.000000
3761 12358 1 0.16500 119244.000000
3761 16227 1 0.16500 119244.000000
3762 12359 1 0.16500 119244.000000
3762 13336 1 0.16500 119244.000000
3763 12359 1 0.16500 119244.000000
3763 16032 1 0.16500 119244.000000
3764 12360 1 0.16500 119244.000000
3764 14143 1 0.16500 119244.000000
3765 12360 1 0.16500 119244.000000
3765 15941 1 0.16500 119244.000000
3766 12361 1 0.16500 119244.000000
3766 13672 1 0.16500 119244.000000
3767 12361 1 0.16500 119244.000000
3767 13902 1 0.16500 119244.000000
3768 12361 1 0.16500 119244.000000
3768 15082 1 0.16500 119244.000000
3769 12361 1 0.16500 119244.000000
3769 14649 1 0.16500 119244.000000
3770 11600 1 0.16500 119244.000000
3770 15563 1 0.16500 119244.000000
3771 19410 1 0.16500 119244.000000
3771 21510 1 0.16500 119244.000000
3772 14270 1 0.16500 119244.000000
3772 19410 1 0.16500 119244.000000
3773 12363 1 0.16500 119244.000000
3773 21666 1 0.16500 119244.000000
3774 12363 1 0.16500 119244.000000
3774 13616 1 0.16500 119244.000000
3775 12363 1 0.16500 119244.000000
3775 22302 1 0.16500 119244.000000
3776 12364 1 0.16500 119244.000000
3776 16477 1 0.16500 119244.000000
3777 12364 1 0.16500 119244.000000
3777 12780 1 0.16500 119244.000000
3778 12364 1 0.16500 119244.000000
3778 12797 1 0.16500 119244.000000
3779 12364 1 0.16500 119244.000000
3779 21222 1 0.16500 119244.000000
3780 12365 1 0.16500 119244.000000
3780 15444 1 0.16500 119244.000000
3781 12365 1 0.16500 119244.000000
3781 14213 1 0.16500 119244.000000
3782 12365 1 0.16500 119244.000000
3782 15529 1 0.16500 119244.000000
3783 12365 1 0.16500 119244.000000
3783 12620 1 0.16500 119244.000000
3784 12366 1 0.16500 119244.000000
3784 16212 1 0.16500 119244.000000
3785 12366 1 0.16500 119244.000000
3785 15917 1 0.16500 119244.000000
3786 12366 1 0.16500 119244.000000
3786 13487 1 0.16500 119244.000000
3787 12367 1 0.16500 119244.000000
3787 13248 1 0.16500 119244.000000
3788 12367 1 0.16500 119244.000000
3788 12372 1 0.16500 119244.000000
3789 12367 1 0.16500 119244.000000
3789 12967 1 0.16500 119244.000000
3790 12368 1 0.16500 119244.000000
3790 13058 1 0.16500 119244.000000
3791 12368 1 0.16500 119244.000000
3791 15069 1 0.16500 119244.000000
3792 12368 1 0.16500 119244.000000
3792 14509 1 0.16500 119244.000000
3793 12369 1 0.16500 119244.000000
3793 14589 1 0.16500 119244.000000
3794 12369 1 0.16500 119244.000000
3794 12835 1 0.16500 119244.000000
3795 12369 1 0.16500 119244.000000
3795 15961 1 0.16500 119244.000000
3796 11723 1 0.16500 119244.000000
3796 12369 1 0.16500 119244.000000
3797 12370 1 0.16500 119244.000000
3797 13350 1 0.16500 119244.000000
3798 12370 1 0.16500 119244.000000
3798 12556 1 0.16500 119244.000000
3799 12370 1 0.16500 119244.000000
3799 13199 1 0.16500 119244.000000
3800 12370 1 0.16500 119244.000000
3800 16221 1 0.16500 119244.000000
3801 12371 1 0.16500 119244.000000
3801 15836 1 0.16500 119244.000000
3802 12371 1 0.16500 119244.000000
3802 12987 1 0.16500 119244.000000
3803 12371 1 0.16500 119244.000000
3803 13628 1 0.16500 119244.000000
3804 12371 1 0.16500 119244.000000
3804 13648 1 0.16500 119244.000000
3805 12367 1 0.16500 119244.000000
3805 12392 1 0.16500 119244.000000
3806 12372 1 0.16500 119244.000000
3806 12849 1 0.16500 119244.000000
3807 12372 1 0.16500 119244.000000
3807 15040 1 0.16500 119244.000000
3808 12373 1 0.16500 119244.000000
3808 15027 1 0.16500 119244.000000
3809 12373 1 0.16500 119244.000000
3809 14729 1 0.16500 119244.000000
3810 12373 1 0.16500 119244.000000
3810 12694 1 0.16500 119244.000000
3811 12373 1 0.16500 119244.000000
3811 14034 1 0.16500 119244.000000
3812 14482 1 0.16500 119244.000000
3812 16476 1 0.16500 119244.000000
3813 12374 1 0.16500 119244.000000
3813 13177 1 0.16500 119244.000000
3814 12374 1 0.16500 119244.000000
3814 16333 1 0.16500 119244.000000
3815 12374 1 0.16500 119244.000000
3815 14482 1 0.16500 119244.000000
3816 12375 1 0.16500 119244.000000
3816 14394 1 0.16500 119244.000000
3817 12375 1 0.16500 119244.000000
3817 13742 1 0.16500 119244.000000
3818 12375 1 0.16500 119244.000000
3818 13287 1 0.16500 119244.000000
3819 12376 1 0.16500 119244.000000
3819 13941 1 0.16500 119244.000000
3820 12376 1 0.16500 119244.000000
3820 14580 1 0.16500 119244.000000
3821 12376 1 0.16500 119244.000000
3821 13910 1 0.16500 119244.000000
3822 12376 1 0.16500 119244.000000
3822 14963 1 0.16500 119244.000000
3823 12377 1 0.16500 119244.000000
3823 15060 1 0.16500 119244.000000
3824 12377 1 0.16500 119244.000000
3824 14469 1 0.16500 119244.000000
3825 12377 1 0.16500 119244.000000
3825 14661 1 0.16500 119244.000000
3826 12378 1 0.16500 119244.000000
3826 15817 1 0.16500 119244.000000
3827 12378 1 0.16500 119244.000000
3827 13944 1 0.16500 119244.000000
3828 12378 1 0.16500 119244.000000
3828 12940 1 0.16500 119244.000000
3829 12379 1 0.16500 119244.000000
3829 16252 1 0.16500 119244.000000
3830 12379 1 0.16500 119244.000000
3830 15045 1 0.16500 119244.000000
3831 12379 1 0.16500 119244.000000
3831 14673 1 0.16500 119244.000000
3832 12380 1 0.16500 119244.000000
3832 18654 1 0.16500 119244.000000
3833 14117 1 0.16500 119244.000000
3833 16393 1 0.16500 119244.000000
3834 12380 1 0.16500 119244.000000
3834 21921 1 0.16500 119244.000000
3835 12381 1 0.16500 119244.000000
3835 15553 1 0.16500 119244.000000
3836 12381 1 0.16500 119244.000000
3836 13954 1 0.16500 119244.000000
3837 12381 1 0.16500 119244.000000
3837 16348 1 0.16500 119244.000000
3838 12382 1 0.16500 119244.000000
3838 14183 1 0.16500 119244.000000
3839 12382 1 0.16500 119244.000000
3839 13630 1 0.16500 119244.000000
3840 12382 1 0.16500 119244.000000
3840 13922 1 0.16500 119244.000000
3841 12382 1 0.16500 119244.000000
3841 16143 1 0.16500 119244.000000
3842 12383 1 0.16500 119244.000000
3842 12932 1 0.16500 119244.000000
3843 12383 1 0.16500 119244.000000
3843 14759 1 0.16500 119244.000000
3844 12383 1 0.16500 119244.000000
3844 15842 1 0.16500 119244.000000
3845 12384 1 0.16500 119244.000000
3845 21723 1 0.16500 119244.000000
3846 12384 1 0.16500 119244.000000
3846 15284 1 0.16500 119244.000000
3847 12384 1 0.16500 119244.000000
3847 20394 1 0.16500 119244.000000
3848 12384 1 0.16500 119244.000000
3848 16125 1 0.16500 119244.000000
3849 12385 1 0.16500 119244.000000
3849 13620 1 0.16500 119244.000000
3850 12385 1 0.16500 119244.000000
3850 12713 1 0.16500 119244.000000
3851 12385 1 0.16500 119244.000000
3851 13000 1 0.16500 119244.000000
3852 12386 1 0.16500 119244.000000
3852 13374 1 0.16500 119244.000000
3853 12386 1 0.16500 119244.000000
3853 14922 1 0.16500 119244.000000
3854 12386 1 0.16500 119244.000000
3854 16183 1 0.16500 119244.000000
3855 12387 1 0.16500 119244.000000
3855 15863 1 0.16500 119244.000000
3856 12387 1 0.16500 119244.000000
3856 14437 1 0.16500 119244.000000
3857 12387 1 0.16500 119244.000000
3857 15981 1 0.16500 119244.000000
3858 12387 1 0.16500 119244.000000
3858 13660 1 0.16500 119244.000000
3859 12388 1 0.16500 119244.000000
3859 13331 1 0.16500 119244.000000
3860 12388 1 0.16500 119244.000000
3860 16224 1 0.16500 119244.000000
3861 12388 1 0.16500 119244.000000
3861 16055 1 0.16500 119244.000000
3862 12388 1 0.16500 119244.000000
3862 13926 1 0.16500 119244.000000
3863 12389 1 0.16500 119244.000000
3863 14088 1 0.16500 119244.000000
3864 12389 1 0.16500 119244.000000
3864 15504 1 0.16500 119244.000000
3865 12389 1 0.16500 119244.000000
3865 16389 1 0.16500 119244.000000
3866 12389 1 0.16500 119244.000000
3866 15524 1 0.16500 119244.000000
3867 12390 1 0.16500 119244.000000
3867 13350 1 0.16500 119244.000000
3868 12390 1 0.16500 119244.000000
3868 15361 1 0.16500 119244.000000
3869 12391 1 0.16500 119244.000000
3869 15598 1 0.16500 119244.000000
3870 12392 1 0.16500 119244.000000
3870 16049 1 0.16500 119244.000000
3871 12392 1 0.16500 119244.000000
3871 13335 1 0.16500 119244.000000
3872 12392 1 0.16500 119244.000000
3872 13038 1 0.16500 119244.000000
3873 12393 1 0.16500 119244.000000
3873 13320 1 0.16500 119244.000000
3874 12393 1 0.16500 119244.000000
3874 14571 1 0.16500 119244.000000
3875 12393 1 0.16500 119244.000000
3875 15068 1 0.16500 119244.000000
3876 12393 1 0.16500 119244.000000
3876 12887 1 0.16500 119244.000000
3877 12982 1 0.16500 119244.000000
3877 19422 1 0.16500 119244.000000
3878 19422 1 0.16500 119244.000000
3878 22059 1 0.16500 119244.000000
3879 15269 1 0.16500 119244.000000
3879 19434 1 0.16500 119244.000000
3880 19434 1 0.16500 119244.000000
3880 21744 1 0.16500 119244.000000
3881 15366 1 0.16500 119244.000000
3881 19434 1 0.16500 119244.000000
3882 12394 1 0.16500 119244.000000
3882 14812 1 0.16500 119244.000000
3883 12394 1 0.16500 119244.000000
3883 13996 1 0.16500 119244.000000
3884 12394 1 0.16500 119244.000000
3884 13316 1 0.16500 119244.000000
3885 12394 1 0.16500 119244.000000
3885 21804 1 0.16500 119244.000000
3886 12395 1 0.16500 119244.000000
3886 14766 1 0.16500 119244.000000
3887 12395 1 0.16500 119244.000000
3887 15511 1 0.16500 119244.000000
3888 12395 1 0.16500 119244.000000
3888 15904 1 0.16500 119244.000000
3889 12396 1 0.16500 119244.000000
3889 15795 1 0.16500 119244.000000
3890 12396 1 0.16500 119244.000000
3890 13349 1 0.16500 119244.000000
3891 12396 1 0.16500 119244.000000
3891 14286 1 0.16500 119244.000000
3892 12397 1 0.16500 119244.000000
3892 13448 1 0.16500 119244.000000
3893 12397 1 0.16500 119244.000000
3893 12511 1 0.16500 119244.000000
3894 12397 1 0.16500 119244.000000
3894 15460 1 0.16500 119244.000000
3895 12398 1 0.16500 119244.000000
3895 15685 1 0.16500 119244.000000
3896 12398 1 0.16500 119244.000000
3896 14545 1 0.16500 119244.000000
3897 12398 1 0.16500 119244.000000
3897 14562 1 0.16500 119244.000000
3898 12398 1 0.16500 119244.000000
3898 15387 1 0.16500 119244.000000
3899 12399 1 0.16500 119244.000000
3899 15482 1 0.16500 119244.000000
3900 12399 1 0.16500 119244.000000
3900 13285 1 0.16500 119244.000000
3901 12399 1 0.16500 119244.000000
3901 16456 1 0.16500 119244.000000
3902 12400 1 0.16500 119244.000000
3902 14287 1 0.16500 119244.000000
3903 12400 1 0.16500 119244.000000
3903 13821 1 0.16500 119244.000000
3904 12400 1 0.16500 119244.000000
3904 19806 1 0.16500 119244.000000
3905 12400 1 0.16500 119244.000000
3905 12425 1 0.16500 119244.000000
3906 12401 1 0.16500 119244.000000
3906 14814 1 0.16500 119244.000000
3907 12401 1 0.16500 119244.000000
3907 13450 1 0.16500 119244.000000
3908 12401 1 0.16500 119244.000000
3908 15149 1 0.16500 119244.000000
3909 12401 1 0.16500 119244.000000
3909 12688 1 0.16500 119244.000000
3910 12402 1 0.16500 119244.000000
3910 15276 1 0.16500 119244.000000
3911 12402 1 0.16500 119244.000000
3911 14359 1 0.16500 119244.000000
3912 12402 1 0.16500 119244.000000
3912 12684 1 0.16500 119244.000000
3913 12403 1 0.16500 119244.000000
3913 14640 1 0.16500 119244.000000
3914 12403 1 0.16500 119244.000000
3914 21663 1 0.16500 119244.000000
3915 12404 1 0.16500 119244.000000
3915 14455 1 0.16500 119244.000000
3916 12404 1 0.16500 119244.000000
3916 15317 1 0.16500 119244.000000
3917 12404 1 0.16500 119244.000000
3917 12923 1 0.16500 119244.000000
3918 12404 1 0.16500 119244.000000
3918 16505 1 0.16500 119244.000000
3919 13905 1 0.16500 119244.000000
3919 14414 1 0.16500 119244.000000
3920 12405 1 0.16500 119244.000000
3920 13905 1 0.16500 119244.000000
3921 12405 1 0.16500 119244.000000
3921 16440 1 0.16500 119244.000000
3922 21591 1 0.16500 119244.000000
3922 21711 1 0.16500 119244.000000
3923 12406 1 0.16500 119244.000000
3923 21711 1 0.16500 119244.000000
3924 12407 1 0.16500 119244.000000
3924 15341 1 0.16500 119244.000000
3925 12407 1 0.16500 119244.000000
3925 15177 1 0.16500 119244.000000
3926 12407 1 0.16500 119244.000000
3926 14074 1 0.16500 119244.000000
3927 12408 1 0.16500 119244.000000
3927 21966 1 0.16500 119244.000000
3928 12408 1 0.16500 119244.000000
3928 14598 1 0.16500 119244.000000
3929 13290 1 0.16500 119244.000000
3929 19446 1 0.16500 119244.000000
3930 19446 1 0.16500 119244.000000
3930 21720 1 0.16500 119244.000000
3931 12409 1 0.16500 119244.000000
3931 14517 1 0.16500 119244.000000
3932 12409 1 0.16500 119244.000000
3932 15494 1 0.16500 119244.000000
3933 12409 1 0.16500 119244.000000
3933 14568 1 0.16500 119244.000000
3934 12409 1 0.16500 119244.000000
3934 13893 1 0.16500 119244.000000
3935 13279 1 0.16500 119244.000000
3935 21969 1 0.16500 119244.000000
3936 13279 1 0.16500 119244.000000
3936 19458 1 0.16500 119244.000000
3937 12410 1 0.16500 119244.000000
3937 13339 1 0.16500 119244.000000
3938 12410 1 0.16500 119244.000000
3938 13760 1 0.16500 119244.000000
3939 12411 1 0.16500 119244.000000
3939 14904 1 0.16500 119244.000000
3940 12411 1 0.16500 119244.000000
3940 13035 1 0.16500 119244.000000
3941 12411 1 0.16500 119244.000000
3941 14000 1 0.16500 119244.000000
3942 12411 1 0.16500 119244.000000
3942 15579 1 0.16500 119244.000000
3943 12412 1 0.16500 119244.000000
3943 13738 1 0.16500 119244.000000
3944 12412 1 0.16500 119244.000000
3944 13171 1 0.16500 119244.000000
3945 12412 1 0.16500 119244.000000
3945 15223 1 0.16500 119244.000000
3946 12413 1 0.16500 119244.000000
3946 22035 1 0.16500 119244.000000
3947 12414 1 0.16500 119244.000000
3947 13867 1 0.16500 119244.000000
3948 12414 1 0.16500 119244.000000
3948 13473 1 0.16500 119244.000000
3949 12414 1 0.16500 119244.000000
3949 14770 1 0.16500 119244.000000
3950 12415 1 0.16500 119244.000000
3950 12787 1 0.16500 119244.000000
3951 12415 1 0.16500 119244.000000
3951 14674 1 0.16500 119244.000000
3952 12415 1 0.16500 119244.000000
3952 13117 1 0.16500 119244.000000
3953 12415 1 0.16500 119244.000000
3953 13713 1 0.16500 119244.000000
3954 12416 1 0.16500 119244.000000
3954 13557 1 0.16500 119244.000000
3955 12416 1 0.16500 119244.000000
3955 14010 1 0.16500 119244.000000
3956 13557 1 0.16500 119244.000000
3956 17482 1 0.16500 119244.000000
3957 12416 1 0.16500 119244.000000
3957 13310 1 0.16500 119244.000000
3958 12417 1 0.16500 119244.000000
3958 14501 1 0.16500 119244.000000
3959 12417 1 0.16500 119244.000000
3959 14661 1 0.16500 119244.000000
3960 12418 1 0.16500 119244.000000
3960 14346 1 0.16500 119244.000000
3961 12418 1 0.16500 119244.000000
3961 12582 1 0.16500 119244.000000
3962 12419 1 0.16500 119244.000000
3962 13748 1 0.16500 119244.000000
3963 12419 1 0.16500 119244.000000
3963 14725 1 0.16500 119244.000000
3964 12419 1 0.16500 119244.000000
3964 13134 1 0.16500 119244.000000
3965 12419 1 0.16500 119244.000000
3965 15040 1 0.16500 119244.000000
3966 12420 1 0.16500 119244.000000
3966 14221 1 0.16500 119244.000000
3967 12420 1 0.16500 119244.000000
3967 15283 1 0.16500 119244.000000
3968 12420 1 0.16500 119244.000000
3968 14311 1 0.16500 119244.000000
3969 12420 1 0.16500 119244.000000
3969 13710 1 0.16500 119244.000000
3970 12421 1 0.16500 119244.000000
3970 15378 1 0.16500 119244.000000
3971 12421 1 0.16500 119244.000000
3971 12434 1 0.16500 119244.000000
3972 11769 1 0.16500 119244.000000
3972 13538 1 0.16500 119244.000000
3973 12422 1 0.16500 119244.000000
3973 13088 1 0.16500 119244.000000
3974 12422 1 0.16500 119244.000000
3974 22296 1 0.16500 119244.000000
3975 12422 1 0.16500 119244.000000
3975 14896 1 0.16500 119244.000000
3976 12422 1 0.16500 119244.000000
3976 17902 1 0.16500 119244.000000
3977 12423 1 0.16500 119244.000000
3977 14545 1 0.16500 119244.000000
3978 12423 1 0.16500 119244.000000
3978 15471 1 0.16500 119244.000000
3979 12424 1 0.16500 119244.000000
3979 13968 1 0.16500 119244.000000
3980 12424 1 0.16500 119244.000000
3980 13223 1 0.16500 119244.000000
3981 12424 1 0.16500 119244.000000
3981 14601 1 0.16500 119244.000000
3982 12425 1 0.16500 119244.000000
3982 16383 1 0.16500 119244.000000
3983 12425 1 0.16500 119244.000000
3983 14280 1 0.16500 119244.000000
3984 12425 1 0.16500 119244.000000
3984 13749 1 0.16500 119244.000000
3985 12426 1 0.16500 119244.000000
3985 14438 1 0.16500 119244.000000
3986 12426 1 0.16500 119244.000000
3986 16512 1 0.16500 119244.000000
3987 12426 1 0.16500 119244.000000
3987 15868 1 0.16500 119244.000000
3988 12426 1 0.16500 119244.000000
3988 14746 1 0.16500 119244.000000
3989 12427 1 0.16500 119244.000000
3989 15463 1 0.16500 119244.000000
3990 12427 1 0.16500 119244.000000
3990 13280 1 0.16500 119244.000000
3991 12427 1 0.16500 119244.000000
3991 14216 1 0.16500 119244.000000
3992 12427 1 0.16500 119244.000000
3992 14565 1 0.16500 119244.000000
3993 12428 1 0.16500 119244.000000
3993 18154 1 0.16500 119244.000000
3994 12428 1 0.16500 119244.000000
3994 13160 1 0.16500 119244.000000
3995 12428 1 0.16500 119244.000000
3995 15062 1 0.16500 119244.000000
3996 12428 1 0.16500 119244.000000
3996 13086 1 0.16500 119244.000000
3997 12429 1 0.16500 119244.000000
3997 16408 1 0.16500 119244.000000
3998 12429 1 0.16500 119244.000000
3998 14233 1 0.16500 119244.000000
3999 12429 1 0.16500 119244.000000
3999 14124 1 0.16500 119244.000000
4000 12430 1 0.16500 119244.000000
4000 14560 1 0.16500 119244.000000
4001 12430 1 0.16500 119244.000000
4001 14566 1 0.16500 119244.000000
4002 12430 1 0.16500 119244.000000
4002 15503 1 0.16500 119244.000000
4003 12431 1 0.16500 119244.000000
4003 15784 1 0.16500 119244.000000
4004 12431 1 0.16500 119244.000000
4004 16137 1 0.16500 119244.000000
4005 12432 1 0.16500 119244.000000
4005 13647 1 0.16500 119244.000000
4006 12432 1 0.16500 119244.000000
4006 15769 1 0.16500 119244.000000
4007 12432 1 0.16500 119244.000000
4007 14502 1 0.16500 119244.000000
4008 12432 1 0.16500 119244.000000
4008 14530 1 0.16500 119244.000000
4009 12433 1 0.16500 119244.000000
4009 15464 1 0.16500 119244.000000
4010 12139 1 0.16500 119244.000000
4010 12433 1 0.16500 119244.000000
4011 12433 1 0.16500 119244.000000
4011 14047 1 0.16500 119244.000000
4012 12434 1 0.16500 119244.000000
4012 13669 1 0.16500 119244.000000
4013 12434 1 0.16500 119244.000000
4013 12957 1 0.16500 119244.000000
4014 12435 1 0.16500 119244.000000
4014 17482 1 0.16500 119244.000000
4015 12435 1 0.16500 119244.000000
4015 13200 1 0.16500 119244.000000
4016 12435 1 0.16500 119244.000000
4016 13462 1 0.16500 119244.000000
4017 14757 1 0.16500 119244.000000
4017 19470 1 0.16500 119244.000000
4018 19470 1 0.16500 119244.000000
4018 22056 1 0.16500 119244.000000
4019 12436 1 0.16500 119244.000000
4019 14641 1 0.16500 119244.000000
4020 12436 1 0.16500 119244.000000
4020 14912 1 0.16500 119244.000000
4021 12436 1 0.16500 119244.000000
4021 16265 1 0.16500 119244.000000
4022 12788 1 0.16500 119244.000000
4022 16052 1 0.16500 119244.000000
4023 12437 1 0.16500 119244.000000
4023 21609 1 0.16500 119244.000000
4024 12437 1 0.16500 119244.000000
4024 12841 1 0.16500 119244.000000
4025 12437 1 0.16500 119244.000000
4025 16052 1 0.16500 119244.000000
4026 12438 1 0.16500 119244.000000
4026 13195 1 0.16500 119244.000000
4027 13195 1 0.16500 119244.000000
4027 16266 1 0.16500 119244.000000
4028 13289 1 0.16500 119244.000000
4028 19482 1 0.16500 119244.000000
4029 16191 1 0.16500 119244.000000
4029 19482 1 0.16500 119244.000000
4030 11584 1 0.16500 119244.000000
4030 14837 1 0.16500 119244.000000
4031 12439 1 0.16500 119244.000000
4031 22185 1 0.16500 119244.000000
4032 12439 1 0.16500 119244.000000
4032 19794 1 0.16500 119244.000000
4033 19494 1 0.16500 119244.000000
4033 22026 1 0.16500 119244.000000
4034 13914 1 0.16500 119244.000000
4034 19494 1 0.16500 119244.000000
4035 12440 1 0.16500 119244.000000
4035 14461 1 0.16500 119244.000000
4036 13393 1 0.16500 119244.000000
4036 15514 1 0.16500 119244.000000
4037 12440 1 0.16500 119244.000000
4037 16473 1 0.16500 119244.000000
4038 12440 1 0.16500 119244.000000
4038 15514 1 0.16500 119244.000000
4039 12441 1 0.16500 119244.000000
4039 15185 1 0.16500 119244.000000
4040 12441 1 0.16500 119244.000000
4040 14191 1 0.16500 119244.000000
4041 12442 1 0.16500 119244.000000
4041 22176 1 0.16500 119244.000000
4042 12442 1 0.16500 119244.000000
4042 15538 1 0.16500 119244.000000
4043 12443 1 0.16500 119244.000000
4043 15384 1 0.16500 119244.000000
4044 12443 1 0.16500 119244.000000
4044 12462 1 0.16500 119244.000000
4045 12443 1 0.16500 119244.000000
4045 16158 1 0.16500 119244.000000
4046 12444 1 0.16500 119244.000000
4046 12625 1 0.16500 119244.000000
4047 12444 1 0.16500 119244.000000
4047 13143 1 0.16500 119244.000000
4048 12444 1 0.16500 119244.000000
4048 13723 1 0.16500 119244.000000
4049 12445 1 0.16500 119244.000000
4049 15033 1 0.16500 119244.000000
4050 12445 1 0.16500 119244.000000
4050 17930 1 0.16500 119244.000000
4051 12445 1 0.16500 119244.000000
4051 17720 1 0.16500 119244.000000
4052 12445 1 0.16500 119244.000000
4052 14700 1 0.16500 119244.000000
4053 12446 1 0.16500 119244.000000
4053 14905 1 0.16500 119244.000000
4054 12446 1 0.16500 119244.000000
4054 13489 1 0.16500 119244.000000
4055 12446 1 0.16500 119244.000000
4055 14730 1 0.16500 119244.000000
4056 12447 1 0.16500 119244.000000
4056 13839 1 0.16500 119244.000000
4057 12447 1 0.16500 119244.000000
4057 21981 1 0.16500 119244.000000
4058 12447 1 0.16500 119244.000000
4058 15468 1 0.16500 119244.000000
4059 12448 1 0.16500 119244.000000
4059 13672 1 0.16500 119244.000000
4060 12448 1 0.16500 119244.000000
4060 17328 1 0.16500 119244.000000
4061 12448 1 0.16500 119244.000000
4061 12769 1 0.16500 119244.000000
4062 12449 1 0.16500 119244.000000
4062 15487 1 0.16500 119244.000000
4063 12449 1 0.16500 119244.000000
4063 15603 1 0.16500 119244.000000
4064 12449 1 0.16500 119244.000000
4064 13834 1 0.16500 119244.000000
4065 12449 1 0.16500 119244.000000
4065 12491 1 0.16500 119244.000000
4066 12450 1 0.16500 119244.000000
4066 15696 1 0.16500 119244.000000
4067 11984 1 0.16500 119244.000000
4067 15696 1 0.16500 119244.000000
4068 12450 1 0.16500 119244.000000
4068 14628 1 0.16500 119244.000000
4069 12451 1 0.16500 119244.000000
4069 14164 1 0.16500 119244.000000
4070 12452 1 0.16500 119244.000000
4070 15242 1 0.16500 119244.000000
4071 12452 1 0.16500 119244.000000
4071 15327 1 0.16500 119244.000000
4072 12452 1 0.16500 119244.000000
4072 12664 1 0.16500 119244.000000
4073 12452 1 0.16500 119244.000000
4073 14740 1 0.16500 119244.000000
4074 12453 1 0.16500 119244.000000
4074 16135 1 0.16500 119244.000000
4075 12453 1 0.16500 119244.000000
4075 12520 1 0.16500 119244.000000
4076 12453 1 0.16500 119244.000000
4076 21825 1 0.16500 119244.000000
4077 12454 1 0.16500 119244.000000
4077 15191 1 0.16500 119244.000000
4078 12454 1 0.16500 119244.000000
4078 15558 1 0.16500 119244.000000
4079 12454 1 0.16500 119244.000000
4079 12912 1 0.16500 119244.000000
4080 12454 1 0.16500 119244.000000
4080 15892 1 0.16500 119244.000000
4081 11803 1 0.16500 119244.000000
4081 14680 1 0.16500 119244.000000
4082 12455 1 0.16500 119244.000000
4082 22056 1 0.16500 119244.000000
4083 12455 1 0.16500 119244.000000
4083 12644 1 0.16500 119244.000000
4084 12456 1 0.16500 119244.000000
4084 13798 1 0.16500 119244.000000
4085 12456 1 0.16500 119244.000000
4085 12880 1 0.16500 119244.000000
4086 12457 1 0.16500 119244.000000
4086 15188 1 0.16500 119244.000000
4087 12457 1 0.16500 119244.000000
4087 18392 1 0.16500 119244.000000
4088 12457 1 0.16500 119244.000000
4088 14620 1 0.16500 119244.000000
4089 12458 1 0.16500 119244.000000
4089 12545 1 0.16500 119244.000000
4090 12458 1 0.16500 119244.000000
4090 13840 1 0.16500 119244.000000
4091 12458 1 0.16500 119244.000000
4091 13584 1 0.16500 119244.000000
4092 12459 1 0.16500 119244.000000
4092 13903 1 0.16500 119244.000000
4093 12459 1 0.16500 119244.000000
4093 13411 1 0.16500 119244.000000
4094 12459 1 0.16500 119244.000000
4094 13075 1 0.16500 119244.000000
4095 12459 1 0.16500 119244.000000
4095 14951 1 0.16500 119244.000000
4096 12460 1 0.16500 119244.000000
4096 13433 1 0.16500 119244.000000
4097 12460 1 0.16500 119244.000000
4097 15202 1 0.16500 119244.000000
4098 12460 1 0.16500 119244.000000
4098 13532 1 0.16500 119244.000000
4099 12460 1 0.16500 119244.000000
4099 15319 1 0.16500 119244.000000
4100 12461 1 0.16500 119244.000000
4100 13377 1 0.16500 119244.000000
4101 13377 1 0.16500 119244.000000
4101 16043 1 0.16500 119244.000000
4102 17216 1 0.16500 119244.000000
4102 19506 1 0.16500 119244.000000
4103 13214 1 0.16500 119244.000000
4103 19506 1 0.16500 119244.000000
4104 12462 1 0.16500 119244.000000
4104 13321 1 0.16500 119244.000000
4105 12462 1 0.16500 119244.000000
4105 16357 1 0.16500 119244.000000
4106 12462 1 0.16500 119244.000000
4106 16129 1 0.16500 119244.000000
4107 12992 1 0.16500 119244.000000
4107 16366 1 0.16500 119244.000000
4108 12463 1 0.16500 119244.000000
4108 12992 1 0.16500 119244.000000
4109 12463 1 0.16500 119244.000000
4109 16469 1 0.16500 119244.000000
4110 12463 1 0.16500 119244.000000
4110 15356 1 0.16500 119244.000000
4111 13098 1 0.16500 119244.000000
4111 20526 1 0.16500 119244.000000
4112 12464 1 0.16500 119244.000000
4112 12653 1 0.16500 119244.000000
4113 12464 1 0.16500 119244.000000
4113 14102 1 0.16500 119244.000000
4114 12465 1 0.16500 119244.000000
4114 14559 1 0.16500 119244.000000
4115 12465 1 0.16500 119244.000000
4115 14790 1 0.16500 119244.000000
4116 12465 1 0.16500 119244.000000
4116 16328 1 0.16500 119244.000000
4117 12465 1 0.16500 119244.000000
4117 16063 1 0.16500 119244.000000
4118 12466 1 0.16500 119244.000000
4118 21948 1 0.16500 119244.000000
4119 12466 1 0.16500 119244.000000
4119 22335 1 0.16500 119244.000000
4120 12467 1 0.16500 119244.000000
4120 16378 1 0.16500 119244.000000
4121 12467 1 0.16500 119244.000000
4121 14689 1 0.16500 119244.000000
4122 12467 1 0.16500 119244.000000
4122 15386 1 0.16500 119244.000000
4123 12467 1 0.16500 119244.000000
4123 14237 1 0.16500 119244.000000
4124 12468 1 0.16500 119244.000000
4124 15478 1 0.16500 119244.000000
4125 12468 1 0.16500 119244.000000
4125 16264 1 0.16500 119244.000000
4126 12468 1 0.16500 119244.000000
4126 13827 1 0.16500 119244.000000
4127 12468 1 0.16500 119244.000000
4127 15900 1 0.16500 119244.000000
4128 12469 1 0.16500 119244.000000
4128 13299 1 0.16500 119244.000000
4129 12469 1 0.16500 119244.000000
4129 15616 1 0.16500 119244.000000
4130 12470 1 0.16500 119244.000000
4130 15466 1 0.16500 119244.000000
4131 12470 1 0.16500 119244.000000
4131 13139 1 0.16500 119244.000000
4132 12471 1 0.16500 119244.000000
4132 14760 1 0.16500 119244.000000
4133 12471 1 0.16500 119244.000000
4133 12659 1 0.16500 119244.000000
4134 12471 1 0.16500 119244.000000
4134 14692 1 0.16500 119244.000000
4135 12472 1 0.16500 119244.000000
4135 13798 1 0.16500 119244.000000
4136 12472 1 0.16500 119244.000000
4136 13826 1 0.16500 119244.000000
4137 12472 1 0.16500 119244.000000
4137 12525 1 0.16500 119244.000000
4138 12473 1 0.16500 119244.000000
4138 14457 1 0.16500 119244.000000
4139 12473 1 0.16500 119244.000000
4139 15857 1 0.16500 119244.000000
4140 12473 1 0.16500 119244.000000
4140 14664 1 0.16500 119244.000000
4141 12474 1 0.16500 119244.000000
4141 15025 1 0.16500 119244.000000
4142 12474 1 0.16500 119244.000000
4142 15369 1 0.16500 119244.000000
4143 12474 1 0.16500 119244.000000
4143 12541 1 0.16500 119244.000000
4144 12474 1 0.16500 119244.000000
4144 12652 1 0.16500 119244.000000
4145 12475 1 0.16500 119244.000000
4145 16266 1 0.16500 119244.000000
4146 12475 1 0.16500 119244.000000
4146 13482 1 0.16500 119244.000000
4147 12475 1 0.16500 119244.000000
4147 15308 1 0.16500 119244.000000
4148 12475 1 0.16500 119244.000000
4148 14845 1 0.16500 119244.000000
4149 12476 1 0.16500 119244.000000
4149 15521 1 0.16500 119244.000000
4150 12476 1 0.16500 119244.000000
4150 18140 1 0.16500 119244.000000
4151 12477 1 0.16500 119244.000000
4151 14977 1 0.16500 119244.000000
4152 12477 1 0.16500 119244.000000
4152 13317 1 0.16500 119244.000000
4153 12477 1 0.16500 119244.000000
4153 13629 1 0.16500 119244.000000
4154 12478 1 0.16500 119244.000000
4154 14149 1 0.16500 119244.000000
4155 12478 1 0.16500 119244.000000
4155 15776 1 0.16500 119244.000000
4156 12478 1 0.16500 119244.000000
4156 13480 1 0.16500 119244.000000
4157 12478 1 0.16500 119244.000000
4157 14162 1 0.16500 119244.000000
4158 12479 1 0.16500 119244.000000
4158 15728 1 0.16500 119244.000000
4159 12479 1 0.16500 119244.000000
4159 15695 1 0.16500 119244.000000
4160 12480 1 0.16500 119244.000000
4160 16178 1 0.16500 119244.000000
4161 12480 1 0.16500 119244.000000
4161 15186 1 0.16500 119244.000000
4162 12480 1 0.16500 119244.000000
4162 15030 1 0.16500 119244.000000
4163 12481 1 0.16500 119244.000000
4163 14840 1 0.16500 119244.000000
4164 12481 1 0.16500 119244.000000
4164 14150 1 0.16500 119244.000000
4165 12481 1 0.16500 119244.000000
4165 16002 1 0.16500 119244.000000
4166 12481 1 0.16500 119244.000000
4166 13695 1 0.16500 119244.000000
4167 11471 1 0.16500 119244.000000
4167 19518 1 0.16500 119244.000000
4168 11471 1 0.16500 119244.000000
4168 22434 1 0.16500 119244.000000
4169 12482 1 0.16500 119244.000000
4169 14515 1 0.16500 119244.000000
4170 12482 1 0.16500 119244.000000
4170 15359 1 0.16500 119244.000000
4171 12482 1 0.16500 119244.000000
4171 13794 1 0.16500 119244.000000
4172 17034 1 0.16500 119244.000000
4172 19530 1 0.16500 119244.000000
4173 12483 1 0.16500 119244.000000
4173 14464 1 0.16500 119244.000000
4174 12483 1 0.16500 119244.000000
4174 14893 1 0.16500 119244.000000
4175 12483 1 0.16500 119244.000000
4175 12488 1 0.16500 119244.000000
4176 12484 1 0.16500 119244.000000
4176 16021 1 0.16500 119244.000000
4177 12484 1 0.16500 119244.000000
4177 14693 1 0.16500 119244.000000
4178 12484 1 0.16500 119244.000000
4178 13599 1 0.16500 119244.000000
4179 12485 1 0.16500 119244.000000
4179 12617 1 0.16500 119244.000000
4180 12485 1 0.16500 119244.000000
4180 15467 1 0.16500 119244.000000
4181 12485 1 0.16500 119244.000000
4181 13560 1 0.16500 119244.000000
4182 12486 1 0.16500 119244.000000
4182 12746 1 0.16500 119244.000000
4183 12486 1 0.16500 119244.000000
4183 15508 1 0.16500 119244.000000
4184 12487 1 0.16500 119244.000000
4184 20430 1 0.16500 119244.000000
4185 12487 1 0.16500 119244.000000
4185 15193 1 0.16500 119244.000000
4186 12488 1 0.16500 119244.000000
4186 15111 1 0.16500 119244.000000
4187 12488 1 0.16500 119244.000000
4187 14962 1 0.16500 119244.000000
4188 12488 1 0.16500 119244.000000
4188 15400 1 0.16500 119244.000000
4189 12489 1 0.16500 119244.000000
4189 13318 1 0.16500 119244.000000
4190 12489 1 0.16500 119244.000000
4190 15946 1 0.16500 119244.000000
4191 12490 1 0.16500 119244.000000
4191 12739 1 0.16500 119244.000000
4192 12490 1 0.16500 119244.000000
4192 14204 1 0.16500 119244.000000
4193 12490 1 0.16500 119244.000000
4193 12778 1 0.16500 119244.000000
4194 12491 1 0.16500 119244.000000
4194 12710 1 0.16500 119244.000000
4195 12491 1 0.16500 119244.000000
4195 16278 1 0.16500 119244.000000
4196 12491 1 0.16500 119244.000000
4196 13682 1 0.16500 119244.000000
4197 12492 1 0.16500 119244.000000
4197 13701 1 0.16500 119244.000000
4198 12492 1 0.16500 119244.000000
4198 15654 1 0.16500 119244.000000
4199 12492 1 0.16500 119244.000000
4199 13627 1 0.16500 119244.000000
4200 12492 1 0.16500 119244.000000
4200 15757 1 0.16500 119244.000000
4201 12493 1 0.16500 119244.000000
4201 14262 1 0.16500 119244.000000
4202 12493 1 0.16500 119244.000000
4202 15571 1 0.16500 119244.000000
4203 12493 1 0.16500 119244.000000
4203 15110 1 0.16500 119244.000000
4204 12493 1 0.16500 119244.000000
4204 16182 1 0.16500 119244.000000
4205 12494 1 0.16500 119244.000000
4205 16336 1 0.16500 119244.000000
4206 12494 1 0.16500 119244.000000
4206 13262 1 0.16500 119244.000000
4207 12494 1 0.16500 119244.000000
4207 21597 1 0.16500 119244.000000
4208 16184 1 0.16500 119244.000000
4208 19542 1 0.16500 119244.000000
4209 19542 1 0.16500 119244.000000
4209 22161 1 0.16500 119244.000000
4210 12495 1 0.16500 119244.000000
4210 12823 1 0.16500 119244.000000
4211 12495 1 0.16500 119244.000000
4211 13113 1 0.16500 119244.000000
4212 12495 1 0.16500 119244.000000
4212 14048 1 0.16500 119244.000000
4213 12496 1 0.16500 119244.000000
4213 13758 1 0.16500 119244.000000
4214 12496 1 0.16500 119244.000000
4214 14304 1 0.16500 119244.000000
4215 12496 1 0.16500 119244.000000
4215 16178 1 0.16500 119244.000000
4216 12496 1 0.16500 119244.000000
4216 13837 1 0.16500 119244.000000
4217 12497 1 0.16500 119244.000000
4217 15947 1 0.16500 119244.000000
4218 12497 1 0.16500 119244.000000
4218 16458 1 0.16500 119244.000000
4219 12497 1 0.16500 119244.000000
4219 14331 1 0.16500 119244.000000
4220 12497 1 0.16500 119244.000000
4220 13925 1 0.16500 119244.000000
4221 12498 1 0.16500 119244.000000
4221 22224 1 0.16500 119244.000000
4222 12498 1 0.16500 119244.000000
4222 12756 1 0.16500 119244.000000
4223 12498 1 0.16500 119244.000000
4223 13151 1 0.16500 119244.000000
4224 12498 1 0.16500 119244.000000
4224 20514 1 0.16500 119244.000000
4225 12499 1 0.16500 119244.000000
4225 13631 1 0.16500 119244.000000
4226 12499 1 0.16500 119244.000000
4226 14034 1 0.16500 119244.000000
4227 12499 1 0.16500 119244.000000
4227 13501 1 0.16500 119244.000000
4228 12499 1 0.16500 119244.000000
4228 13341 1 0.16500 119244.000000
4229 12500 1 0.16500 119244.000000
4229 13585 1 0.16500 119244.000000
4230 12500 1 0.16500 119244.000000
4230 14832 1 0.16500 119244.000000
4231 12500 1 0.16500 119244.000000
4231 13665 1 0.16500 119244.000000
4232 12501 1 0.16500 119244.000000
4232 12730 1 0.16500 119244.000000
4233 12501 1 0.16500 119244.000000
4233 14514 1 0.16500 119244.000000
4234 12501 1 0.16500 119244.000000
4234 15036 1 0.16500 119244.000000
4235 12501 1 0.16500 119244.000000
4235 15550 1 0.16500 119244.000000
4236 12502 1 0.16500 119244.000000
4236 21618 1 0.16500 119244.000000
4237 12503 1 0.16500 119244.000000
4237 13251 1 0.16500 119244.000000
4238 12503 1 0.16500 119244.000000
4238 22281 1 0.16500 119244.000000
4239 12503 1 0.16500 119244.000000
4239 13262 1 0.16500 119244.000000
4240 12503 1 0.16500 119244.000000
4240 15814 1 0.16500 119244.000000
4241 14925 1 0.16500 119244.000000
4241 19554 1 0.16500 119244.000000
4242 13985 1 0.16500 119244.000000
4242 19554 1 0.16500 119244.000000
4243 15883 1 0.16500 119244.000000
4243 19554 1 0.16500 119244.000000
4244 12504 1 0.16500 119244.000000
4244 12723 1 0.16500 119244.000000
4245 12504 1 0.16500 119244.000000
4245 12551 1 0.16500 119244.000000
4246 12504 1 0.16500 119244.000000
4246 15416 1 0.16500 119244.000000
4247 12504 1 0.16500 119244.000000
4247 14782 1 0.16500 119244.000000
4248 12505 1 0.16500 119244.000000
4248 15320 1 0.16500 119244.000000
4249 12505 1 0.16500 119244.000000
4249 14125 1 0.16500 119244.000000
4250 12505 1 0.16500 119244.000000
4250 13853 1 0.16500 119244.000000
4251 12505 1 0.16500 119244.000000
4251 16278 1 0.16500 119244.000000
4252 12506 1 0.16500 119244.000000
4252 15221 1 0.16500 119244.000000
4253 12506 1 0.16500 119244.000000
4253 13075 1 0.16500 119244.000000
4254 12506 1 0.16500 119244.000000
4254 13393 1 0.16500 119244.000000
4255 12507 1 0.16500 119244.000000
4255 15068 1 0.16500 119244.000000
4256 12507 1 0.16500 119244.000000
4256 14232 1 0.16500 119244.000000
4257 12507 1 0.16500 119244.000000
4257 16230 1 0.16500 119244.000000
4258 12507 1 0.16500 119244.000000
4258 15948 1 0.16500 119244.000000
4259 12508 1 0.16500 119244.000000
4259 13569 1 0.16500 119244.000000
4260 12508 1 0.16500 119244.000000
4260 13713 1 0.16500 119244.000000
4261 12508 1 0.16500 119244.000000
4261 14686 1 0.16500 119244.000000
4262 12509 1 0.16500 119244.000000
4262 12640 1 0.16500 119244.000000
4263 12509 1 0.16500 119244.000000
4263 14909 1 0.16500 119244.000000
4264 12509 1 0.16500 119244.000000
4264 16484 1 0.16500 119244.000000
4265 12509 1 0.16500 119244.000000
4265 15867 1 0.16500 119244.000000
4266 12510 1 0.16500 119244.000000
4266 14272 1 0.16500 119244.000000
4267 12510 1 0.16500 119244.000000
4267 13268 1 0.16500 119244.000000
4268 12510 1 0.16500 119244.000000
4268 15272 1 0.16500 119244.000000
4269 12510 1 0.16500 119244.000000
4269 14960 1 0.16500 119244.000000
4270 12511 1 0.16500 119244.000000
4270 16656 1 0.16500 119244.000000
4271 12511 1 0.16500 119244.000000
4271 13813 1 0.16500 119244.000000
4272 12512 1 0.16500 119244.000000
4272 12517 1 0.16500 119244.000000
4273 12512 1 0.16500 119244.000000
4273 15388 1 0.16500 119244.000000
4274 12512 1 0.16500 119244.000000
4274 15171 1 0.16500 119244.000000
4275 12512 1 0.16500 119244.000000
4275 15246 1 0.16500 119244.000000
4276 12513 1 0.16500 119244.000000
4276 14907 1 0.16500 119244.000000
4277 12513 1 0.16500 119244.000000
4277 16398 1 0.16500 119244.000000
4278 12514 1 0.16500 119244.000000
4278 20886 1 0.16500 119244.000000
4279 12514 1 0.16500 119244.000000
4279 15798 1 0.16500 119244.000000
4280 12514 1 0.16500 119244.000000
4280 13777 1 0.16500 119244.000000
4281 12514 1 0.16500 119244.000000
4281 16838 1 0.16500 119244.000000
4282 12515 1 0.16500 119244.000000
4282 15393 1 0.16500 119244.000000
4283 12515 1 0.16500 119244.000000
4283 16367 1 0.16500 119244.000000
4284 12516 1 0.16500 119244.000000
4284 14898 1 0.16500 119244.000000
4285 12568 1 0.16500 119244.000000
4285 14898 1 0.16500 119244.000000
4286 12516 1 0.16500 119244.000000
4286 13088 1 0.16500 119244.000000
4287 12517 1 0.16500 119244.000000
4287 14875 1 0.16500 119244.000000
4288 12517 1 0.16500 119244.000000
4288 12657 1 0.16500 119244.000000
4289 12517 1 0.16500 119244.000000
4289 14510 1 0.16500 119244.000000
4290 12518 1 0.16500 119244.000000
4290 16515 1 0.16500 119244.000000
4291 12518 1 0.16500 119244.000000
4291 12986 1 0.16500 119244.000000
4292 12518 1 0.16500 119244.000000
4292 22254 1 0.16500 119244.000000
4293 12518 1 0.16500 119244.000000
4293 13094 1 0.16500 119244.000000
4294 12519 1 0.16500 119244.000000
4294 13941 1 0.16500 119244.000000
4295 11520 1 0.16500 119244.000000
4295 13800 1 0.16500 119244.000000
4296 12519 1 0.16500 119244.000000
4296 14494 1 0.16500 119244.000000
4297 12520 1 0.16500 119244.000000
4297 13333 1 0.16500 119244.000000
4298 12520 1 0.16500 119244.000000
4298 16001 1 0.16500 119244.000000
4299 12521 1 0.16500 119244.000000
4299 14369 1 0.16500 119244.000000
4300 12521 1 0.16500 119244.000000
4300 16388 1 0.16500 119244.000000
4301 12521 1 0.16500 119244.000000
4301 14901 1 0.16500 119244.000000
4302 12522 1 0.16500 119244.000000
4302 12598 1 0.16500 119244.000000
4303 12598 1 0.16500 119244.000000
4303 14849 1 0.16500 119244.000000
4304 12522 1 0.16500 119244.000000
4304 16908 1 0.16500 119244.000000
4305 12523 1 0.16500 119244.000000
4305 15118 1 0.16500 119244.000000
4306 12523 1 0.16500 119244.000000
4306 13522 1 0.16500 119244.000000
4307 12523 1 0.16500 119244.000000
4307 13574 1 0.16500 119244.000000
4308 12523 1 0.16500 119244.000000
4308 15635 1 0.16500 119244.000000
4309 12524 1 0.16500 119244.000000
4309 12557 1 0.16500 119244.000000
4310 12524 1 0.16500 119244.000000
4310 14493 1 0.16500 119244.000000
4311 12524 1 0.16500 119244.000000
4311 15505 1 0.16500 119244.000000
4312 12525 1 0.16500 119244.000000
4312 13023 1 0.16500 119244.000000
4313 12525 1 0.16500 119244.000000
4313 16135 1 0.16500 119244.000000
4314 12526 1 0.16500 119244.000000
4314 15272 1 0.16500 119244.000000
4315 12526 1 0.16500 119244.000000
4315 13989 1 0.16500 119244.000000
4316 12526 1 0.16500 119244.000000
4316 16051 1 0.16500 119244.000000
4317 12527 1 0.16500 119244.000000
4317 16054 1 0.16500 119244.000000
4318 12527 1 0.16500 119244.000000
4318 17286 1 0.16500 119244.000000
4319 12527 1 0.16500 119244.000000
4319 13705 1 0.16500 119244.000000
4320 13705 1 0.16500 119244.000000
4320 16345 1 0.16500 119244.000000
4321 12528 1 0.16500 119244.000000
4321 13544 1 0.16500 119244.000000
4322 12528 1 0.16500 119244.000000
4322 12665 1 0.16500 119244.000000
4323 12528 1 0.16500 119244.000000
4323 14713 1 0.16500 119244.000000
4324 12528 1 0.16500 119244.000000
4324 13727 1 0.16500 119244.000000
4325 12529 1 0.16500 119244.000000
4325 21663 1 0.16500 119244.000000
4326 12529 1 0.16500 119244.000000
4326 16361 1 0.16500 119244.000000
4327 12530 1 0.16500 119244.000000
4327 12830 1 0.16500 119244.000000
4328 12530 1 0.16500 119244.000000
4328 14953 1 0.16500 119244.000000
4329 12530 1 0.16500 119244.000000
4329 14705 1 0.16500 119244.000000
4330 12530 1 0.16500 119244.000000
4330 21687 1 0.16500 119244.000000
4331 12531 1 0.16500 119244.000000
4331 14941 1 0.16500 119244.000000
4332 12328 1 0.16500 119244.000000
4332 12531 1 0.16500 119244.000000
4333 12531 1 0.16500 119244.000000
4333 15734 1 0.16500 119244.000000
4334 12531 1 0.16500 119244.000000
4334 15080 1 0.16500 119244.000000
4335 12532 1 0.16500 119244.000000
4335 14390 1 0.16500 119244.000000
4336 12532 1 0.16500 119244.000000
4336 13590 1 0.16500 119244.000000
4337 12532 1 0.16500 119244.000000
4337 16151 1 0.16500 119244.000000
4338 19566 1 0.16500 119244.000000
4338 20478 1 0.16500 119244.000000
4339 15943 1 0.16500 119244.000000
4339 19566 1 0.16500 119244.000000
4340 19566 1 0.16500 119244.000000
4340 21723 1 0.16500 119244.000000
4341 12533 1 0.16500 119244.000000
4341 15167 1 0.16500 119244.000000
4342 12533 1 0.16500 119244.000000
4342 16440 1 0.16500 119244.000000
4343 12533 1 0.16500 119244.000000
4343 14780 1 0.16500 119244.000000
4344 12533 1 0.16500 119244.000000
4344 14534 1 0.16500 119244.000000
4345 12534 1 0.16500 119244.000000
4345 14857 1 0.16500 119244.000000
4346 12534 1 0.16500 119244.000000
4346 13973 1 0.16500 119244.000000
4347 12534 1 0.16500 119244.000000
4347 14207 1 0.16500 119244.000000
4348 12534 1 0.16500 119244.000000
4348 15363 1 0.16500 119244.000000
4349 12535 1 0.16500 119244.000000
4349 13074 1 0.16500 119244.000000
4350 12535 1 0.16500 119244.000000
4350 14428 1 0.16500 119244.000000
4351 12535 1 0.16500 119244.000000
4351 15376 1 0.16500 119244.000000
4352 12535 1 0.16500 119244.000000
4352 15053 1 0.16500 119244.000000
4353 12536 1 0.16500 119244.000000
4353 13479 1 0.16500 119244.000000
4354 12536 1 0.16500 119244.000000
4354 12910 1 0.16500 119244.000000
4355 12536 1 0.16500 119244.000000
4355 14738 1 0.16500 119244.000000
4356 12536 1 0.16500 119244.000000
4356 14283 1 0.16500 119244.000000
4357 12537 1 0.16500 119244.000000
4357 15986 1 0.16500 119244.000000
4358 12537 1 0.16500 119244.000000
4358 15338 1 0.16500 119244.000000
4359 12537 1 0.16500 119244.000000
4359 13358 1 0.16500 119244.000000
4360 12537 1 0.16500 119244.000000
4360 15954 1 0.16500 119244.000000
4361 12538 1 0.16500 119244.000000
4361 15857 1 0.16500 119244.000000
4362 12538 1 0.16500 119244.000000
4362 13693 1 0.16500 119244.000000
4363 12538 1 0.16500 119244.000000
4363 17692 1 0.16500 119244.000000
4364 12538 1 0.16500 119244.000000
4364 12607 1 0.16500 119244.000000
4365 12539 1 0.16500 119244.000000
4365 16257 1 0.16500 119244.000000
4366 12539 1 0.16500 119244.000000
4366 13426 1 0.16500 119244.000000
4367 12539 1 0.16500 119244.000000
4367 22065 1 0.16500 119244.000000
4368 12539 1 0.16500 119244.000000
4368 12991 1 0.16500 119244.000000
4369 12540 1 0.16500 119244.000000
4369 15163 1 0.16500 119244.000000
4370 12540 1 0.16500 119244.000000
4370 15239 1 0.16500 119244.000000
4371 12540 1 0.16500 119244.000000
4371 12588 1 0.16500 119244.000000
4372 12541 1 0.16500 119244.000000
4372 15643 1 0.16500 119244.000000
4373 12541 1 0.16500 119244.000000
4373 16111 1 0.16500 119244.000000
4374 13268 1 0.16500 119244.000000
4374 21507 1 0.16500 119244.000000
4375 12542 1 0.16500 119244.000000
4375 14337 1 0.16500 119244.000000
4376 12542 1 0.16500 119244.000000
4376 13701 1 0.16500 119244.000000
4377 12543 1 0.16500 119244.000000
4377 14851 1 0.16500 119244.000000
4378 12543 1 0.16500 119244.000000
4378 17118 1 0.16500 119244.000000
4379 12543 1 0.16500 119244.000000
4379 15697 1 0.16500 119244.000000
4380 12544 1 0.16500 119244.000000
4380 15944 1 0.16500 119244.000000
4381 12544 1 0.16500 119244.000000
4381 12727 1 0.16500 119244.000000
4382 12545 1 0.16500 119244.000000
4382 13608 1 0.16500 119244.000000
4383 12545 1 0.16500 119244.000000
4383 13572 1 0.16500 119244.000000
4384 12545 1 0.16500 119244.000000
4384 16479 1 0.16500 119244.000000
4385 12546 1 0.16500 119244.000000
4385 16167 1 0.16500 119244.000000
4386 12546 1 0.16500 119244.000000
4386 15980 1 0.16500 119244.000000
4387 12546 1 0.16500 119244.000000
4387 14948 1 0.16500 119244.000000
4388 12546 1 0.16500 119244.000000
4388 15228 1 0.16500 119244.000000
4389 12547 1 0.16500 119244.000000
4389 15799 1 0.16500 119244.000000
4390 12547 1 0.16500 119244.000000
4390 14641 1 0.16500 119244.000000
4391 12548 1 0.16500 119244.000000
4391 21753 1 0.16500 119244.000000
4392 12687 1 0.16500 119244.000000
4392 21753 1 0.16500 119244.000000
4393 12548 1 0.16500 119244.000000
4393 13258 1 0.16500 119244.000000
4394 12549 1 0.16500 119244.000000
4394 15491 1 0.16500 119244.000000
4395 12549 1 0.16500 119244.000000
4395 14062 1 0.16500 119244.000000
4396 12549 1 0.16500 119244.000000
4396 14745 1 0.16500 119244.000000
4397 12549 1 0.16500 119244.000000
4397 14160 1 0.16500 119244.000000
4398 15952 1 0.16500 119244.000000
4398 19578 1 0.16500 119244.000000
4399 14091 1 0.16500 119244.000000
4399 19578 1 0.16500 119244.000000
4400 14643 1 0.16500 119244.000000
4400 19578 1 0.16500 119244.000000
4401 12550 1 0.16500 119244.000000
4401 14887 1 0.16500 119244.000000
4402 12550 1 0.16500 119244.000000
4402 14022 1 0.16500 119244.000000
4403 12550 1 0.16500 119244.000000
4403 15749 1 0.16500 119244.000000
4404 12551 1 0.16500 119244.000000
4404 16213 1 0.16500 119244.000000
4405 12551 1 0.16500 119244.000000
4405 14808 1 0.16500 119244.000000
4406 12551 1 0.16500 119244.000000
4406 13908 1 0.16500 119244.000000
4407 12552 1 0.16500 119244.000000
4407 13624 1 0.16500 119244.000000
4408 12552 1 0.16500 119244.000000
4408 14617 1 0.16500 119244.000000
4409 12552 1 0.16500 119244.000000
4409 14912 1 0.16500 119244.000000
4410 12553 1 0.16500 119244.000000
4410 15957 1 0.16500 119244.000000
4411 12553 1 0.16500 119244.000000
4411 13196 1 0.16500 119244.000000
4412 12553 1 0.16500 119244.000000
4412 13404 1 0.16500 119244.000000
4413 12554 1 0.16500 119244.000000
4413 16410 1 0.16500 119244.000000
4414 12554 1 0.16500 119244.000000
4414 16342 1 0.16500 119244.000000
4415 12554 1 0.16500 119244.000000
4415 14792 1 0.16500 119244.000000
4416 12554 1 0.16500 119244.000000
4416 15973 1 0.16500 119244.000000
4417 12555 1 0.16500 119244.000000
4417 13568 1 0.16500 119244.000000
4418 12555 1 0.16500 119244.000000
4418 19686 1 0.16500 119244.000000
4419 12259 1 0.16500 119244.000000
4419 16922 1 0.16500 119244.000000
4420 12556 1 0.16500 119244.000000
4420 12618 1 0.16500 119244.000000
4421 12556 1 0.16500 119244.000000
4421 14406 1 0.16500 119244.000000
4422 12556 1 0.16500 119244.000000
4422 12631 1 0.16500 119244.000000
4423 12557 1 0.16500 119244.000000
4423 16090 1 0.16500 119244.000000
4424 12557 1 0.16500 119244.000000
4424 15167 1 0.16500 119244.000000
4425 12558 1 0.16500 119244.000000
4425 21783 1 0.16500 119244.000000
4426 12558 1 0.16500 119244.000000
4426 15107 1 0.16500 119244.000000
4427 12558 1 0.16500 119244.000000
4427 20286 1 0.16500 119244.000000
4428 12559 1 0.16500 119244.000000
4428 14327 1 0.16500 119244.000000
4429 12559 1 0.16500 119244.000000
4429 12969 1 0.16500 119244.000000
4430 12559 1 0.16500 119244.000000
4430 13181 1 0.16500 119244.000000
4431 12559 1 0.16500 119244.000000
4431 16524 1 0.16500 119244.000000
4432 19590 1 0.16500 119244.000000
4432 22296 1 0.16500 119244.000000
4433 13379 1 0.16500 119244.000000
4433 19590 1 0.16500 119244.000000
4434 14366 1 0.16500 119244.000000
4434 19590 1 0.16500 119244.000000
4435 12560 1 0.16500 119244.000000
4435 13175 1 0.16500 119244.000000
4436 12561 1 0.16500 119244.000000
4436 14098 1 0.16500 119244.000000
4437 12561 1 0.16500 119244.000000
4437 22200 1 0.16500 119244.000000
4438 12561 1 0.16500 119244.000000
4438 15327 1 0.16500 119244.000000
4439 12561 1 0.16500 119244.000000
4439 22050 1 0.16500 119244.000000
4440 12562 1 0.16500 119244.000000
4440 14498 1 0.16500 119244.000000
4441 12562 1 0.16500 119244.000000
4441 13123 1 0.16500 119244.000000
4442 12563 1 0.16500 119244.000000
4442 14043 1 0.16500 119244.000000
4443 12563 1 0.16500 119244.000000
4443 13086 1 0.16500 119244.000000
4444 11448 1 0.16500 119244.000000
4444 12563 1 0.16500 119244.000000
4445 12563 1 0.16500 119244.000000
4445 16388 1 0.16500 119244.000000
4446 12564 1 0.16500 119244.000000
4446 21975 1 0.16500 119244.000000
4447 12564 1 0.16500 119244.000000
4447 15225 1 0.16500 119244.000000
4448 12564 1 0.16500 119244.000000
4448 16513 1 0.16500 119244.000000
4449 12564 1 0.16500 119244.000000
4449 12976 1 0.16500 119244.000000
4450 12565 1 0.16500 119244.000000
4450 15656 1 0.16500 119244.000000
4451 12565 1 0.16500 119244.000000
4451 15257 1 0.16500 119244.000000
4452 12565 1 0.16500 119244.000000
4452 16319 1 0.16500 119244.000000
4453 12566 1 0.16500 119244.000000
4453 14053 1 0.16500 119244.000000
4454 12566 1 0.16500 119244.000000
4454 19902 1 0.16500 119244.000000
4455 12566 1 0.16500 119244.000000
4455 13477 1 0.16500 119244.000000
4456 12567 1 0.16500 119244.000000
4456 15105 1 0.16500 119244.000000
4457 12567 1 0.16500 119244.000000
4457 13019 1 0.16500 119244.000000
4458 12567 1 0.16500 119244.000000
4458 12708 1 0.16500 119244.000000
4459 12568 1 0.16500 119244.000000
4459 12884 1 0.16500 119244.000000
4460 12568 1 0.16500 119244.000000
4460 13573 1 0.16500 119244.000000
4461 12569 1 0.16500 119244.000000
4461 14160 1 0.16500 119244.000000
4462 12569 1 0.16500 119244.000000
4462 12599 1 0.16500 119244.000000
4463 11586 1 0.16500 119244.000000
4463 12569 1 0.16500 119244.000000
4464 12570 1 0.16500 119244.000000
4464 13038 1 0.16500 119244.000000
4465 12570 1 0.16500 119244.000000
4465 16049 1 0.16500 119244.000000
4466 12571 1 0.16500 119244.000000
4466 13058 1 0.16500 119244.000000
4467 12571 1 0.16500 119244.000000
4467 14365 1 0.16500 119244.000000
4468 12571 1 0.16500 119244.000000
4468 13233 1 0.16500 119244.000000
4469 12572 1 0.16500 119244.000000
4469 16045 1 0.16500 119244.000000
4470 12572 1 0.16500 119244.000000
4470 14287 1 0.16500 119244.000000
4471 12572 1 0.16500 119244.000000
4471 15324 1 0.16500 119244.000000
4472 12572 1 0.16500 119244.000000
4472 14471 1 0.16500 119244.000000
4473 12573 1 0.16500 119244.000000
4473 14504 1 0.16500 119244.000000
4474 12573 1 0.16500 119244.000000
4474 14812 1 0.16500 119244.000000
4475 12573 1 0.16500 119244.000000
4475 14419 1 0.16500 119244.000000
4476 12574 1 0.16500 119244.000000
4476 15366 1 0.16500 119244.000000
4477 12574 1 0.16500 119244.000000
4477 16487 1 0.16500 119244.000000
4478 12574 1 0.16500 119244.000000
4478 16044 1 0.16500 119244.000000
4479 19602 1 0.16500 119244.000000
4479 22035 1 0.16500 119244.000000
4480 14356 1 0.16500 119244.000000
4480 16086 1 0.16500 119244.000000
4481 16086 1 0.16500 119244.000000
4481 19602 1 0.16500 119244.000000
4482 12575 1 0.16500 119244.000000
4482 13610 1 0.16500 119244.000000
4483 12575 1 0.16500 119244.000000
4483 13755 1 0.16500 119244.000000
4484 12575 1 0.16500 119244.000000
4484 14312 1 0.16500 119244.000000
4485 12575 1 0.16500 119244.000000
4485 16299 1 0.16500 119244.000000
4486 12576 1 0.16500 119244.000000
4486 15416 1 0.16500 119244.000000
4487 12576 1 0.16500 119244.000000
4487 15097 1 0.16500 119244.000000
4488 12576 1 0.16500 119244.000000
4488 13614 1 0.16500 119244.000000
4489 12576 1 0.16500 119244.000000
4489 16437 1 0.16500 119244.000000
4490 12577 1 0.16500 119244.000000
4490 14103 1 0.16500 119244.000000
4491 12577 1 0.16500 119244.000000
4491 16076 1 0.16500 119244.000000
4492 12577 1 0.16500 119244.000000
4492 13023 1 0.16500 119244.000000
4493 12577 1 0.16500 119244.000000
4493 14558 1 0.16500 119244.000000
4494 12578 1 0.16500 119244.000000
4494 14999 1 0.16500 119244.000000
4495 14561 1 0.16500 119244.000000
4495 15892 1 0.16500 119244.000000
4496 12578 1 0.16500 119244.000000
4496 14561 1 0.16500 119244.000000
4497 12578 1 0.16500 119244.000000
4497 22143 1 0.16500 119244.000000
4498 12579 1 0.16500 119244.000000
4498 13418 1 0.16500 119244.000000
4499 12579 1 0.16500 119244.000000
4499 13102 1 0.16500 119244.000000
4500 12579 1 0.16500 119244.000000
4500 15486 1 0.16500 119244.000000
4501 12580 1 0.16500 119244.000000
4501 15672 1 0.16500 119244.000000
4502 12580 1 0.16500 119244.000000
4502 16427 1 0.16500 119244.000000
4503 12580 1 0.16500 119244.000000
4503 16368 1 0.16500 119244.000000
4504 12581 1 0.16500 119244.000000
4504 15908 1 0.16500 119244.000000
4505 12581 1 0.16500 119244.000000
4505 16053 1 0.16500 119244.000000
4506 12581 1 0.16500 119244.000000
4506 14944 1 0.16500 119244.000000
4507 12582 1 0.16500 119244.000000
4507 16124 1 0.16500 119244.000000
4508 12582 1 0.16500 119244.000000
4508 16341 1 0.16500 119244.000000
4509 14669 1 0.16500 119244.000000
4509 19626 1 0.16500 119244.000000
4510 19626 1 0.16500 119244.000000
4510 22089 1 0.16500 119244.000000
4511 13179 1 0.16500 119244.000000
4511 19638 1 0.16500 119244.000000
4512 13991 1 0.16500 119244.000000
4512 19638 1 0.16500 119244.000000
4513 19638 1 0.16500 119244.000000
4513 20970 1 0.16500 119244.000000
4514 13460 1 0.16500 119244.000000
4514 21366 1 0.16500 119244.000000
4515 14417 1 0.16500 119244.000000
4515 19650 1 0.16500 119244.000000
4516 19650 1 0.16500 119244.000000
4516 21627 1 0.16500 119244.000000
4517 19650 1 0.16500 119244.000000
4517 22260 1 0.16500 119244.000000
4518 12583 1 0.16500 119244.000000
4518 15596 1 0.16500 119244.000000
4519 12583 1 0.16500 119244.000000
4519 22296 1 0.16500 119244.000000
4520 12583 1 0.16500 119244.000000
4520 16391 1 0.16500 119244.000000
4521 12583 1 0.16500 119244.000000
4521 12807 1 0.16500 119244.000000
4522 12584 1 0.16500 119244.000000
4522 14924 1 0.16500 119244.000000
4523 12584 1 0.16500 119244.000000
4523 15174 1 0.16500 119244.000000
4524 12585 1 0.16500 119244.000000
4524 15375 1 0.16500 119244.000000
4525 12585 1 0.16500 119244.000000
4525 14205 1 0.16500 119244.000000
4526 12586 1 0.16500 119244.000000
4526 13351 1 0.16500 119244.000000
4527 12586 1 0.16500 119244.000000
4527 15674 1 0.16500 119244.000000
4528 11643 1 0.16500 119244.000000
4528 12586 1 0.16500 119244.000000
4529 12586 1 0.16500 119244.000000
4529 15783 1 0.16500 119244.000000
4530 12587 1 0.16500 119244.000000
4530 16242 1 0.16500 119244.000000
4531 12588 1 0.16500 119244.000000
4531 16291 1 0.16500 119244.000000
4532 12588 1 0.16500 119244.000000
4532 16359 1 0.16500 119244.000000
4533 11969 1 0.16500 119244.000000
4533 12588 1 0.16500 119244.000000
4534 12589 1 0.16500 119244.000000
4534 22002 1 0.16500 119244.000000
4535 12589 1 0.16500 119244.000000
4535 14293 1 0.16500 119244.000000
4536 12590 1 0.16500 119244.000000
4536 15113 1 0.16500 119244.000000
4537 12590 1 0.16500 119244.000000
4537 14996 1 0.16500 119244.000000
4538 12590 1 0.16500 119244.000000
4538 16079 1 0.16500 119244.000000
4539 12591 1 0.16500 119244.000000
4539 21867 1 0.16500 119244.000000
4540 12592 1 0.16500 119244.000000
4540 14570 1 0.16500 119244.000000
4541 12592 1 0.16500 119244.000000
4541 15782 1 0.16500 119244.000000
4542 12592 1 0.16500 119244.000000
4542 15044 1 0.16500 119244.000000
4543 12593 1 0.16500 119244.000000
4543 13944 1 0.16500 119244.000000
4544 12593 1 0.16500 119244.000000
4544 14000 1 0.16500 119244.000000
4545 12593 1 0.16500 119244.000000
4545 12751 1 0.16500 119244.000000
4546 12594 1 0.16500 119244.000000
4546 14253 1 0.16500 119244.000000
4547 12594 1 0.16500 119244.000000
4547 13236 1 0.16500 119244.000000
4548 12594 1 0.16500 119244.000000
4548 14202 1 0.16500 119244.000000
4549 12594 1 0.16500 119244.000000
4549 16304 1 0.16500 119244.000000
4550 12595 1 0.16500 119244.000000
4550 22101 1 0.16500 119244.000000
4551 12595 1 0.16500 119244.000000
4551 14416 1 0.16500 119244.000000
4552 12595 1 0.16500 119244.000000
4552 15189 1 0.16500 119244.000000
4553 21669 1 0.16500 119244.000000
4553 21813 1 0.16500 119244.000000
4554 12596 1 0.16500 119244.000000
4554 13128 1 0.16500 119244.000000
4555 12596 1 0.16500 119244.000000
4555 16318 1 0.16500 119244.000000
4556 12596 1 0.16500 119244.000000
4556 21813 1 0.16500 119244.000000
4557 12597 1 0.16500 119244.000000
4557 12648 1 0.16500 119244.000000
4558 12597 1 0.16500 119244.000000
4558 16080 1 0.16500 119244.000000
4559 12597 1 0.16500 119244.000000
4559 13863 1 0.16500 119244.000000
4560 12522 1 0.16500 119244.000000
4560 16401 1 0.16500 119244.000000
4561 12598 1 0.16500 119244.000000
4561 16417 1 0.16500 119244.000000
4562 12598 1 0.16500 119244.000000
4562 14749 1 0.16500 119244.000000
4563 12599 1 0.16500 119244.000000
4563 14153 1 0.16500 119244.000000
4564 12599 1 0.16500 119244.000000
4564 13269 1 0.16500 119244.000000
4565 12600 1 0.16500 119244.000000
4565 22098 1 0.16500 119244.000000
4566 12600 1 0.16500 119244.000000
4566 15407 1 0.16500 119244.000000
4567 12601 1 0.16500 119244.000000
4567 15467 1 0.16500 119244.000000
4568 12602 1 0.16500 119244.000000
4568 14238 1 0.16500 119244.000000
4569 12602 1 0.16500 119244.000000
4569 13308 1 0.16500 119244.000000
4570 12602 1 0.16500 119244.000000
4570 16471 1 0.16500 119244.000000
4571 12602 1 0.16500 119244.000000
4571 12743 1 0.16500 119244.000000
4572 12603 1 0.16500 119244.000000
4572 14966 1 0.16500 119244.000000
4573 12603 1 0.16500 119244.000000
4573 15659 1 0.16500 119244.000000
4574 12603 1 0.16500 119244.000000
4574 15045 1 0.16500 119244.000000
4575 12604 1 0.16500 119244.000000
4575 15169 1 0.16500 119244.000000
4576 12604 1 0.16500 119244.000000
4576 21366 1 0.16500 119244.000000
4577 12604 1 0.16500 119244.000000
4577 16922 1 0.16500 119244.000000
4578 12604 1 0.16500 119244.000000
4578 13116 1 0.16500 119244.000000
4579 12605 1 0.16500 119244.000000
4579 13550 1 0.16500 119244.000000
4580 12605 1 0.16500 119244.000000
4580 15280 1 0.16500 119244.000000
4581 12605 1 0.16500 119244.000000
4581 14622 1 0.16500 119244.000000
4582 12605 1 0.16500 119244.000000
4582 15410 1 0.16500 119244.000000
4583 12606 1 0.16500 119244.000000
4583 13277 1 0.16500 119244.000000
4584 13277 1 0.16500 119244.000000
4584 22014 1 0.16500 119244.000000
4585 12607 1 0.16500 119244.000000
4585 16000 1 0.16500 119244.000000
4586 14657 1 0.16500 119244.000000
4586 19662 1 0.16500 119244.000000
4587 19662 1 0.16500 119244.000000
4587 22389 1 0.16500 119244.000000
4588 14397 1 0.16500 119244.000000
4588 19662 1 0.16500 119244.000000
4589 15314 1 0.16500 119244.000000
4589 20310 1 0.16500 119244.000000
4590 13048 1 0.16500 119244.000000
4590 15314 1 0.16500 119244.000000
4591 12608 1 0.16500 119244.000000
4591 15314 1 0.16500 119244.000000
4592 13711 1 0.16500 119244.000000
4592 15314 1 0.16500 119244.000000
4593 14644 1 0.16500 119244.000000
4593 15078 1 0.16500 119244.000000
4594 12609 1 0.16500 119244.000000
4594 14922 1 0.16500 119244.000000
4595 12609 1 0.16500 119244.000000
4595 15078 1 0.16500 119244.000000
4596 12610 1 0.16500 119244.000000
4596 12925 1 0.16500 119244.000000
4597 12610 1 0.16500 119244.000000
4597 15525 1 0.16500 119244.000000
4598 12610 1 0.16500 119244.000000
4598 15450 1 0.16500 119244.000000
4599 12611 1 0.16500 119244.000000
4599 13857 1 0.16500 119244.000000
4600 12611 1 0.16500 119244.000000
4600 12725 1 0.16500 119244.000000
4601 12611 1 0.16500 119244.000000
4601 15169 1 0.16500 119244.000000
4602 12611 1 0.16500 119244.000000
4602 15146 1 0.16500 119244.000000
4603 16154 1 0.16500 119244.000000
4603 19674 1 0.16500 119244.000000
4604 19674 1 0.16500 119244.000000
4604 22269 1 0.16500 119244.000000
4605 12612 1 0.16500 119244.000000
4605 15899 1 0.16500 119244.000000
4606 12612 1 0.16500 119244.000000
4606 12660 1 0.16500 119244.000000
4607 16203 1 0.16500 119244.000000
4607 21606 1 0.16500 119244.000000
4608 15448 1 0.16500 119244.000000
4608 21606 1 0.16500 119244.000000
4609 12613 1 0.16500 119244.000000
4609 13367 1 0.16500 119244.000000
4610 12613 1 0.16500 119244.000000
4610 15357 1 0.16500 119244.000000
4611 12613 1 0.16500 119244.000000
4611 15633 1 0.16500 119244.000000
4612 12613 1 0.16500 119244.000000
4612 15673 1 0.16500 119244.000000
4613 12614 1 0.16500 119244.000000
4613 15894 1 0.16500 119244.000000
4614 12614 1 0.16500 119244.000000
4614 14197 1 0.16500 119244.000000
4615 12614 1 0.16500 119244.000000
4615 14873 1 0.16500 119244.000000
4616 12614 1 0.16500 119244.000000
4616 15361 1 0.16500 119244.000000
4617 12615 1 0.16500 119244.000000
4617 12709 1 0.16500 119244.000000
4618 12615 1 0.16500 119244.000000
4618 14852 1 0.16500 119244.000000
4619 12615 1 0.16500 119244.000000
4619 15410 1 0.16500 119244.000000
4620 12616 1 0.16500 119244.000000
4620 15716 1 0.16500 119244.000000
4621 12616 1 0.16500 119244.000000
4621 13454 1 0.16500 119244.000000
4622 12616 1 0.16500 119244.000000
4622 14400 1 0.16500 119244.000000
4623 19686 1 0.16500 119244.000000
4623 21960 1 0.16500 119244.000000
4624 11482 1 0.16500 119244.000000
4624 19686 1 0.16500 119244.000000
4625 12485 1 0.16500 119244.000000
4625 14350 1 0.16500 119244.000000
4626 12617 1 0.16500 119244.000000
4626 14742 1 0.16500 119244.000000
4627 12617 1 0.16500 119244.000000
4627 13060 1 0.16500 119244.000000
4628 12618 1 0.16500 119244.000000
4628 15213 1 0.16500 119244.000000
4629 12618 1 0.16500 119244.000000
4629 13780 1 0.16500 119244.000000
4630 12619 1 0.16500 119244.000000
4630 13400 1 0.16500 119244.000000
4631 12619 1 0.16500 119244.000000
4631 15194 1 0.16500 119244.000000
4632 12619 1 0.16500 119244.000000
4632 13106 1 0.16500 119244.000000
4633 12619 1 0.16500 119244.000000
4633 14567 1 0.16500 119244.000000
4634 12620 1 0.16500 119244.000000
4634 13785 1 0.16500 119244.000000
4635 12620 1 0.16500 119244.000000
4635 15731 1 0.16500 119244.000000
4636 16444 1 0.16500 119244.000000
4636 19698 1 0.16500 119244.000000
4637 13472 1 0.16500 119244.000000
4637 19698 1 0.16500 119244.000000
4638 12970 1 0.16500 119244.000000
4638 19698 1 0.16500 119244.000000
4639 11488 1 0.16500 119244.000000
4639 16285 1 0.16500 119244.000000
4640 11488 1 0.16500 119244.000000
4640 13865 1 0.16500 119244.000000
4641 12622 1 0.16500 119244.000000
4641 16058 1 0.16500 119244.000000
4642 12622 1 0.16500 119244.000000
4642 15302 1 0.16500 119244.000000
4643 12622 1 0.16500 119244.000000
4643 14924 1 0.16500 119244.000000
4644 12622 1 0.16500 119244.000000
4644 13513 1 0.16500 119244.000000
4645 12623 1 0.16500 119244.000000
4645 14173 1 0.16500 119244.000000
4646 12623 1 0.16500 119244.000000
4646 15903 1 0.16500 119244.000000
4647 12623 1 0.16500 119244.000000
4647 16495 1 0.16500 119244.000000
4648 12624 1 0.16500 119244.000000
4648 19722 1 0.16500 119244.000000
4649 12624 1 0.16500 119244.000000
4649 12637 1 0.16500 119244.000000
4650 12624 1 0.16500 119244.000000
4650 20586 1 0.16500 119244.000000
4651 12625 1 0.16500 119244.000000
4651 16082 1 0.16500 119244.000000
4652 12625 1 0.16500 119244.000000
4652 16345 1 0.16500 119244.000000
4653 12625 1 0.16500 119244.000000
4653 13040 1 0.16500 119244.000000
4654 12626 1 0.16500 119244.000000
4654 12828 1 0.16500 119244.000000
4655 12626 1 0.16500 119244.000000
4655 14018 1 0.16500 119244.000000
4656 12626 1 0.16500 119244.000000
4656 13259 1 0.16500 119244.000000
4657 12626 1 0.16500 119244.000000
4657 15686 1 0.16500 119244.000000
4658 12627 1 0.16500 119244.000000
4658 13665 1 0.16500 119244.000000
4659 12627 1 0.16500 119244.000000
4659 15101 1 0.16500 119244.000000
4660 12628 1 0.16500 119244.000000
4660 16472 1 0.16500 119244.000000
4661 12628 1 0.16500 119244.000000
4661 16514 1 0.16500 119244.000000
4662 12628 1 0.16500 119244.000000
4662 15816 1 0.16500 119244.000000
4663 12628 1 0.16500 119244.000000
4663 13049 1 0.16500 119244.000000
4664 12629 1 0.16500 119244.000000
4664 13830 1 0.16500 119244.000000
4665 12629 1 0.16500 119244.000000
4665 15577 1 0.16500 119244.000000
4666 12629 1 0.16500 119244.000000
4666 15345 1 0.16500 119244.000000
4667 12630 1 0.16500 119244.000000
4667 16431 1 0.16500 119244.000000
4668 12630 1 0.16500 119244.000000
4668 16193 1 0.16500 119244.000000
4669 12630 1 0.16500 119244.000000
4669 15376 1 0.16500 119244.000000
4670 12630 1 0.16500 119244.000000
4670 12984 1 0.16500 119244.000000
4671 12631 1 0.16500 119244.000000
4671 14817 1 0.16500 119244.000000
4672 12631 1 0.16500 119244.000000
4672 14314 1 0.16500 119244.000000
4673 12631 1 0.16500 119244.000000
4673 15651 1 0.16500 119244.000000
4674 12632 1 0.16500 119244.000000
4674 14215 1 0.16500 119244.000000
4675 12632 1 0.16500 119244.000000
4675 13576 1 0.16500 119244.000000
4676 13904 1 0.16500 119244.000000
4676 15266 1 0.16500 119244.000000
4677 12632 1 0.16500 119244.000000
4677 15266 1 0.16500 119244.000000
4678 12633 1 0.16500 119244.000000
4678 12853 1 0.16500 119244.000000
4679 12633 1 0.16500 119244.000000
4679 13561 1 0.16500 119244.000000
4680 12633 1 0.16500 119244.000000
4680 16135 1 0.16500 119244.000000
4681 12633 1 0.16500 119244.000000
4681 16128 1 0.16500 119244.000000
4682 12634 1 0.16500 119244.000000
4682 16232 1 0.16500 119244.000000
4683 12634 1 0.16500 119244.000000
4683 16305 1 0.16500 119244.000000
4684 12635 1 0.16500 119244.000000
4684 14187 1 0.16500 119244.000000
4685 12635 1 0.16500 119244.000000
4685 13095 1 0.16500 119244.000000
4686 12635 1 0.16500 119244.000000
4686 14340 1 0.16500 119244.000000
4687 12635 1 0.16500 119244.000000
4687 13054 1 0.16500 119244.000000
4688 12636 1 0.16500 119244.000000
4688 21882 1 0.16500 119244.000000
4689 12636 1 0.16500 119244.000000
4689 14715 1 0.16500 119244.000000
4690 12636 1 0.16500 119244.000000
4690 12747 1 0.16500 119244.000000
4691 19710 1 0.16500 119244.000000
4691 21759 1 0.16500 119244.000000
4692 19710 1 0.16500 119244.000000
4692 21516 1 0.16500 119244.000000
4693 14942 1 0.16500 119244.000000
4693 19710 1 0.16500 119244.000000
4694 12637 1 0.16500 119244.000000
4694 15742 1 0.16500 119244.000000
4695 12637 1 0.16500 119244.000000
4695 16056 1 0.16500 119244.000000
4696 12638 1 0.16500 119244.000000
4696 13246 1 0.16500 119244.000000
4697 12638 1 0.16500 119244.000000
4697 15771 1 0.16500 119244.000000
4698 12639 1 0.16500 119244.000000
4698 15129 1 0.16500 119244.000000
4699 12639 1 0.16500 119244.000000
4699 15415 1 0.16500 119244.000000
4700 13945 1 0.16500 119244.000000
4700 19722 1 0.16500 119244.000000
4701 16950 1 0.16500 119244.000000
4701 19722 1 0.16500 119244.000000
4702 12640 1 0.16500 119244.000000
4702 15485 1 0.16500 119244.000000
4703 12640 1 0.16500 119244.000000
4703 13264 1 0.16500 119244.000000
4704 12640 1 0.16500 119244.000000
4704 14148 1 0.16500 119244.000000
4705 12641 1 0.16500 119244.000000
4705 13779 1 0.16500 119244.000000
4706 12641 1 0.16500 119244.000000
4706 15130 1 0.16500 119244.000000
4707 12641 1 0.16500 119244.000000
4707 21633 1 0.16500 119244.000000
4708 12642 1 0.16500 119244.000000
4708 13787 1 0.16500 119244.000000
4709 12642 1 0.16500 119244.000000
4709 20010 1 0.16500 119244.000000
4710 12642 1 0.16500 119244.000000
4710 15011 1 0.16500 119244.000000
4711 12643 1 0.16500 119244.000000
4711 14583 1 0.16500 119244.000000
4712 12643 1 0.16500 119244.000000
4712 14053 1 0.16500 119244.000000
4713 12643 1 0.16500 119244.000000
4713 12658 1 0.16500 119244.000000
4714 12643 1 0.16500 119244.000000
4714 14985 1 0.16500 119244.000000
4715 12644 1 0.16500 119244.000000
4715 13054 1 0.16500 119244.000000
4716 12644 1 0.16500 119244.000000
4716 14410 1 0.16500 119244.000000
4717 12645 1 0.16500 119244.000000
4717 13156 1 0.16500 119244.000000
4718 12645 1 0.16500 119244.000000
4718 16233 1 0.16500 119244.000000
4719 12645 1 0.16500 119244.000000
4719 15541 1 0.16500 119244.000000
4720 12645 1 0.16500 119244.000000
4720 13814 1 0.16500 119244.000000
4721 12646 1 0.16500 119244.000000
4721 13459 1 0.16500 119244.000000
4722 12646 1 0.16500 119244.000000
4722 12697 1 0.16500 119244.000000
4723 12646 1 0.16500 119244.000000
4723 12655 1 0.16500 119244.000000
4724 12646 1 0.16500 119244.000000
4724 13611 1 0.16500 119244.000000
4725 12647 1 0.16500 119244.000000
4725 16065 1 0.16500 119244.000000
4726 12647 1 0.16500 119244.000000
4726 16392 1 0.16500 119244.000000
4727 12647 1 0.16500 119244.000000
4727 15856 1 0.16500 119244.000000
4728 12647 1 0.16500 119244.000000
4728 14793 1 0.16500 119244.000000
4729 12648 1 0.16500 119244.000000
4729 13252 1 0.16500 119244.000000
4730 12648 1 0.16500 119244.000000
4730 13177 1 0.16500 119244.000000
4731 12648 1 0.16500 119244.000000
4731 14149 1 0.16500 119244.000000
4732 12649 1 0.16500 119244.000000
4732 14263 1 0.16500 119244.000000
4733 12649 1 0.16500 119244.000000
4733 22350 1 0.16500 119244.000000
4734 12649 1 0.16500 119244.000000
4734 12764 1 0.16500 119244.000000
4735 12649 1 0.16500 119244.000000
4735 22245 1 0.16500 119244.000000
4736 14068 1 0.16500 119244.000000
4736 19734 1 0.16500 119244.000000
4737 13881 1 0.16500 119244.000000
4737 19734 1 0.16500 119244.000000
4738 12650 1 0.16500 119244.000000
4738 14717 1 0.16500 119244.000000
4739 12650 1 0.16500 119244.000000
4739 15599 1 0.16500 119244.000000
4740 12650 1 0.16500 119244.000000
4740 16085 1 0.16500 119244.000000
4741 12650 1 0.16500 119244.000000
4741 13213 1 0.16500 119244.000000
4742 12651 1 0.16500 119244.000000
4742 14127 1 0.16500 119244.000000
4743 12651 1 0.16500 119244.000000
4743 13892 1 0.16500 119244.000000
4744 12651 1 0.16500 119244.000000
4744 12714 1 0.16500 119244.000000
4745 12652 1 0.16500 119244.000000
4745 16100 1 0.16500 119244.000000
4746 12652 1 0.16500 119244.000000
4746 13091 1 0.16500 119244.000000
4747 12653 1 0.16500 119244.000000
4747 14427 1 0.16500 119244.000000
4748 12653 1 0.16500 119244.000000
4748 16131 1 0.16500 119244.000000
4749 12653 1 0.16500 119244.000000
4749 15414 1 0.16500 119244.000000
4750 12654 1 0.16500 119244.000000
4750 12884 1 0.16500 119244.000000
4751 12654 1 0.16500 119244.000000
4751 13645 1 0.16500 119244.000000
4752 12655 1 0.16500 119244.000000
4752 13639 1 0.16500 119244.000000
4753 12655 1 0.16500 119244.000000
4753 15090 1 0.16500 119244.000000
4754 12655 1 0.16500 119244.000000
4754 16015 1 0.16500 119244.000000
4755 13930 1 0.16500 119244.000000
4755 16015 1 0.16500 119244.000000
4756 12656 1 0.16500 119244.000000
4756 12874 1 0.16500 119244.000000
4757 12656 1 0.16500 119244.000000
4757 15957 1 0.16500 119244.000000
4758 12656 1 0.16500 119244.000000
4758 14586 1 0.16500 119244.000000
4759 12657 1 0.16500 119244.000000
4759 15924 1 0.16500 119244.000000
4760 13860 1 0.16500 119244.000000
4760 14313 1 0.16500 119244.000000
4761 12657 1 0.16500 119244.000000
4761 14313 1 0.16500 119244.000000
4762 12658 1 0.16500 119244.000000
4762 13661 1 0.16500 119244.000000
4763 12658 1 0.16500 119244.000000
4763 16057 1 0.16500 119244.000000
4764 12658 1 0.16500 119244.000000
4764 12928 1 0.16500 119244.000000
4765 12659 1 0.16500 119244.000000
4765 14995 1 0.16500 119244.000000
4766 12660 1 0.16500 119244.000000
4766 15095 1 0.16500 119244.000000
4767 12660 1 0.16500 119244.000000
4767 15318 1 0.16500 119244.000000
4768 12660 1 0.16500 119244.000000
4768 15343 1 0.16500 119244.000000
4769 12661 1 0.16500 119244.000000
4769 14083 1 0.16500 119244.000000
4770 12661 1 0.16500 119244.000000
4770 14295 1 0.16500 119244.000000
4771 19746 1 0.16500 119244.000000
4771 21585 1 0.16500 119244.000000
4772 13969 1 0.16500 119244.000000
4772 19746 1 0.16500 119244.000000
4773 12662 1 0.16500 119244.000000
4773 21837 1 0.16500 119244.000000
4774 12662 1 0.16500 119244.000000
4774 12894 1 0.16500 119244.000000
4775 12662 1 0.16500 119244.000000
4775 13120 1 0.16500 119244.000000
4776 12662 1 0.16500 119244.000000
4776 21852 1 0.16500 119244.000000
4777 12663 1 0.16500 119244.000000
4777 21042 1 0.16500 119244.000000
4778 12663 1 0.16500 119244.000000
4778 13298 1 0.16500 119244.000000
4779 12663 1 0.16500 119244.000000
4779 22287 1 0.16500 119244.000000
4780 12663 1 0.16500 119244.000000
4780 12719 1 0.16500 119244.000000
4781 12664 1 0.16500 119244.000000
4781 15649 1 0.16500 119244.000000
4782 12664 1 0.16500 119244.000000
4782 15198 1 0.16500 119244.000000
4783 13735 1 0.16500 119244.000000
4783 15649 1 0.16500 119244.000000
4784 12665 1 0.16500 119244.000000
4784 16061 1 0.16500 119244.000000
4785 12665 1 0.16500 119244.000000
4785 21525 1 0.16500 119244.000000
4786 12666 1 0.16500 119244.000000
4786 16290 1 0.16500 119244.000000
4787 12666 1 0.16500 119244.000000
4787 12934 1 0.16500 119244.000000
4788 12666 1 0.16500 119244.000000
4788 14390 1 0.16500 119244.000000
4789 12380 1 0.16500 119244.000000
4789 12667 1 0.16500 119244.000000
4790 12668 1 0.16500 119244.000000
4790 15991 1 0.16500 119244.000000
4791 12668 1 0.16500 119244.000000
4791 13594 1 0.16500 119244.000000
4792 12668 1 0.16500 119244.000000
4792 19806 1 0.16500 119244.000000
4793 12669 1 0.16500 119244.000000
4793 13840 1 0.16500 119244.000000
4794 12669 1 0.16500 119244.000000
4794 13207 1 0.16500 119244.000000
4795 13077 1 0.16500 119244.000000
4795 19758 1 0.16500 119244.000000
4796 12670 1 0.16500 119244.000000
4796 14983 1 0.16500 119244.000000
4797 12670 1 0.16500 119244.000000
4797 13720 1 0.16500 119244.000000
4798 12670 1 0.16500 119244.000000
4798 15305 1 0.16500 119244.000000
4799 12670 1 0.16500 119244.000000
4799 14842 1 0.16500 119244.000000
4800 12671 1 0.16500 119244.000000
4800 16032 1 0.16500 119244.000000
4801 12672 1 0.16500 119244.000000
4801 13091 1 0.16500 119244.000000
4802 13091 1 0.16500 119244.000000
4802 16179 1 0.16500 119244.000000
4803 12672 1 0.16500 119244.000000
4803 14983 1 0.16500 119244.000000
4804 12673 1 0.16500 119244.000000
4804 15836 1 0.16500 119244.000000
4805 12673 1 0.16500 119244.000000
4805 14777 1 0.16500 119244.000000
4806 12084 1 0.16500 119244.000000
4806 13007 1 0.16500 119244.000000
4807 13575 1 0.16500 119244.000000
4807 19770 1 0.16500 119244.000000
4808 14651 1 0.16500 119244.000000
4808 19770 1 0.16500 119244.000000
4809 19770 1 0.16500 119244.000000
4809 21966 1 0.16500 119244.000000
4810 12674 1 0.16500 119244.000000
4810 13906 1 0.16500 119244.000000
4811 13906 1 0.16500 119244.000000
4811 17258 1 0.16500 119244.000000
4812 12674 1 0.16500 119244.000000
4812 15356 1 0.16500 119244.000000
4813 14711 1 0.16500 119244.000000
4813 19782 1 0.16500 119244.000000
4814 13397 1 0.16500 119244.000000
4814 19782 1 0.16500 119244.000000
4815 12675 1 0.16500 119244.000000
4815 15219 1 0.16500 119244.000000
4816 12675 1 0.16500 119244.000000
4816 14739 1 0.16500 119244.000000
4817 19794 1 0.16500 119244.000000
4817 21651 1 0.16500 119244.000000
4818 12676 1 0.16500 119244.000000
4818 15874 1 0.16500 119244.000000
4819 12676 1 0.16500 119244.000000
4819 13476 1 0.16500 119244.000000
4820 12676 1 0.16500 119244.000000
4820 15331 1 0.16500 119244.000000
4821 12677 1 0.16500 119244.000000
4821 12790 1 0.16500 119244.000000
4822 12677 1 0.16500 119244.000000
4822 13934 1 0.16500 119244.000000
4823 12677 1 0.16500 119244.000000
4823 14026 1 0.16500 119244.000000
4824 12677 1 0.16500 119244.000000
4824 14967 1 0.16500 119244.000000
4825 12678 1 0.16500 119244.000000
4825 15788 1 0.16500 119244.000000
4826 12678 1 0.16500 119244.000000
4826 15752 1 0.16500 119244.000000
4827 12678 1 0.16500 119244.000000
4827 14375 1 0.16500 119244.000000
4828 12679 1 0.16500 119244.000000
4828 14001 1 0.16500 119244.000000
4829 12679 1 0.16500 119244.000000
4829 12974 1 0.16500 119244.000000
4830 12679 1 0.16500 119244.000000
4830 15468 1 0.16500 119244.000000
4831 12680 1 0.16500 119244.000000
4831 16254 1 0.16500 119244.000000
4832 12680 1 0.16500 119244.000000
4832 14792 1 0.16500 119244.000000
4833 12680 1 0.16500 119244.000000
4833 15669 1 0.16500 119244.000000
4834 12680 1 0.16500 119244.000000
4834 12998 1 0.16500 119244.000000
4835 12681 1 0.16500 119244.000000
4835 14917 1 0.16500 119244.000000
4836 12681 1 0.16500 119244.000000
4836 16486 1 0.16500 119244.000000
4837 12681 1 0.16500 119244.000000
4837 13276 1 0.16500 119244.000000
4838 12682 1 0.16500 119244.000000
4838 13901 1 0.16500 119244.000000
4839 12682 1 0.16500 119244.000000
4839 13270 1 0.16500 119244.000000
4840 12682 1 0.16500 119244.000000
4840 14845 1 0.16500 119244.000000
4841 12683 1 0.16500 119244.000000
4841 13857 1 0.16500 119244.000000
4842 12683 1 0.16500 119244.000000
4842 14838 1 0.16500 119244.000000
4843 12683 1 0.16500 119244.000000
4843 14498 1 0.16500 119244.000000
4844 12683 1 0.16500 119244.000000
4844 13173 1 0.16500 119244.000000
4845 12684 1 0.16500 119244.000000
4845 13072 1 0.16500 119244.000000
4846 12684 1 0.16500 119244.000000
4846 13707 1 0.16500 119244.000000
4847 12684 1 0.16500 119244.000000
4847 14758 1 0.16500 119244.000000
4848 15851 1 0.16500 119244.000000
4848 22137 1 0.16500 119244.000000
4849 12685 1 0.16500 119244.000000
4849 15851 1 0.16500 119244.000000
4850 12686 1 0.16500 119244.000000
4850 14568 1 0.16500 119244.000000
4851 12686 1 0.16500 119244.000000
4851 13981 1 0.16500 119244.000000
4852 12686 1 0.16500 119244.000000
4852 15964 1 0.16500 119244.000000
4853 12687 1 0.16500 119244.000000
4853 22200 1 0.16500 119244.000000
4854 12687 1 0.16500 119244.000000
4854 14422 1 0.16500 119244.000000
4855 12687 1 0.16500 119244.000000
4855 14895 1 0.16500 119244.000000
4856 12688 1 0.16500 119244.000000
4856 15897 1 0.16500 119244.000000
4857 12688 1 0.16500 119244.000000
4857 15806 1 0.16500 119244.000000
4858 12689 1 0.16500 119244.000000
4858 16115 1 0.16500 119244.000000
4859 12689 1 0.16500 119244.000000
4859 13343 1 0.16500 119244.000000
4860 12107 1 0.16500 119244.000000
4860 14777 1 0.16500 119244.000000
4861 13261 1 0.16500 119244.000000
4861 19818 1 0.16500 119244.000000
4862 13175 1 0.16500 119244.000000
4862 19818 1 0.16500 119244.000000
4863 12690 1 0.16500 119244.000000
4863 15916 1 0.16500 119244.000000
4864 12690 1 0.16500 119244.000000
4864 16199 1 0.16500 119244.000000
4865 12690 1 0.16500 119244.000000
4865 14598 1 0.16500 119244.000000
4866 12690 1 0.16500 119244.000000
4866 16523 1 0.16500 119244.000000
4867 12691 1 0.16500 119244.000000
4867 14897 1 0.16500 119244.000000
4868 12691 1 0.16500 119244.000000
4868 15175 1 0.16500 119244.000000
4869 12691 1 0.16500 119244.000000
4869 15159 1 0.16500 119244.000000
4870 12692 1 0.16500 119244.000000
4870 21390 1 0.16500 119244.000000
4871 12692 1 0.16500 119244.000000
4871 14855 1 0.16500 119244.000000
4872 12693 1 0.16500 119244.000000
4872 14994 1 0.16500 119244.000000
4873 12694 1 0.16500 119244.000000
4873 13730 1 0.16500 119244.000000
4874 12694 1 0.16500 119244.000000
4874 14998 1 0.16500 119244.000000
4875 12694 1 0.16500 119244.000000
4875 14292 1 0.16500 119244.000000
4876 12695 1 0.16500 119244.000000
4876 12745 1 0.16500 119244.000000
4877 12695 1 0.16500 119244.000000
4877 15533 1 0.16500 119244.000000
4878 12695 1 0.16500 119244.000000
4878 13432 1 0.16500 119244.000000
4879 15717 1 0.16500 119244.000000
4879 19830 1 0.16500 119244.000000
4880 12696 1 0.16500 119244.000000
4880 13571 1 0.16500 119244.000000
4881 12696 1 0.16500 119244.000000
4881 16222 1 0.16500 119244.000000
4882 12696 1 0.16500 119244.000000
4882 13538 1 0.16500 119244.000000
4883 12697 1 0.16500 119244.000000
4883 13726 1 0.16500 119244.000000
4884 12697 1 0.16500 119244.000000
4884 13818 1 0.16500 119244.000000
4885 12697 1 0.16500 119244.000000
4885 14614 1 0.16500 119244.000000
4886 14933 1 0.16500 119244.000000
4886 19842 1 0.16500 119244.000000
4887 12698 1 0.16500 119244.000000
4887 16491 1 0.16500 119244.000000
4888 12698 1 0.16500 119244.000000
4888 13030 1 0.16500 119244.000000
4889 12698 1 0.16500 119244.000000
4889 15897 1 0.16500 119244.000000
4890 12698 1 0.16500 119244.000000
4890 14856 1 0.16500 119244.000000
4891 12699 1 0.16500 119244.000000
4891 12873 1 0.16500 119244.000000
4892 12699 1 0.16500 119244.000000
4892 14410 1 0.16500 119244.000000
4893 12699 1 0.16500 119244.000000
4893 14340 1 0.16500 119244.000000
4894 19854 1 0.16500 119244.000000
4894 21696 1 0.16500 119244.000000
4895 13361 1 0.16500 119244.000000
4895 19866 1 0.16500 119244.000000
4896 19866 1 0.16500 119244.000000
4896 21660 1 0.16500 119244.000000
4897 12700 1 0.16500 119244.000000
4897 15423 1 0.16500 119244.000000
4898 12700 1 0.16500 119244.000000
4898 13845 1 0.16500 119244.000000
4899 14184 1 0.16500 119244.000000
4899 15975 1 0.16500 119244.000000
4900 12701 1 0.16500 119244.000000
4900 14184 1 0.16500 119244.000000
4901 12701 1 0.16500 119244.000000
4901 12837 1 0.16500 119244.000000
4902 12702 1 0.16500 119244.000000
4902 13181 1 0.16500 119244.000000
4903 12702 1 0.16500 119244.000000
4903 14973 1 0.16500 119244.000000
4904 12702 1 0.16500 119244.000000
4904 14316 1 0.16500 119244.000000
4905 12702 1 0.16500 119244.000000
4905 13253 1 0.16500 119244.000000
4906 12703 1 0.16500 119244.000000
4906 14061 1 0.16500 119244.000000
4907 12703 1 0.16500 119244.000000
4907 13769 1 0.16500 119244.000000
4908 12703 1 0.16500 119244.000000
4908 13172 1 0.16500 119244.000000
4909 12703 1 0.16500 119244.000000
4909 15349 1 0.16500 119244.000000
4910 12704 1 0.16500 119244.000000
4910 16285 1 0.16500 119244.000000
4911 12704 1 0.16500 119244.000000
4911 16246 1 0.16500 119244.000000
4912 12704 1 0.16500 119244.000000
4912 13381 1 0.16500 119244.000000
4913 12704 1 0.16500 119244.000000
4913 14792 1 0.16500 119244.000000
4914 12705 1 0.16500 119244.000000
4914 15045 1 0.16500 119244.000000
4915 12705 1 0.16500 119244.000000
4915 13625 1 0.16500 119244.000000
4916 12705 1 0.16500 119244.000000
4916 16282 1 0.16500 119244.000000
4917 12705 1 0.16500 119244.000000
4917 15420 1 0.16500 119244.000000
4918 12706 1 0.16500 119244.000000
4918 14221 1 0.16500 119244.000000
4919 12706 1 0.16500 119244.000000
4919 15268 1 0.16500 119244.000000
4920 12706 1 0.16500 119244.000000
4920 13525 1 0.16500 119244.000000
4921 12706 1 0.16500 119244.000000
4921 15486 1 0.16500 119244.000000
4922 13382 1 0.16500 119244.000000
4922 16530 1 0.16500 119244.000000
4923 12707 1 0.16500 119244.000000
4923 15102 1 0.16500 119244.000000
4924 12707 1 0.16500 119244.000000
4924 12845 1 0.16500 119244.000000
4925 12707 1 0.16500 119244.000000
4925 14497 1 0.16500 119244.000000
4926 12708 1 0.16500 119244.000000
4926 13722 1 0.16500 119244.000000
4927 12708 1 0.16500 119244.000000
4927 12909 1 0.16500 119244.000000
4928 12708 1 0.16500 119244.000000
4928 12950 1 0.16500 119244.000000
4929 12709 1 0.16500 119244.000000
4929 22131 1 0.16500 119244.000000
4930 12709 1 0.16500 119244.000000
4930 20886 1 0.16500 119244.000000
4931 12710 1 0.16500 119244.000000
4931 16386 1 0.16500 119244.000000
4932 14176 1 0.16500 119244.000000
4932 19878 1 0.16500 119244.000000
4933 12711 1 0.16500 119244.000000
4933 13708 1 0.16500 119244.000000
4934 12711 1 0.16500 119244.000000
4934 14774 1 0.16500 119244.000000
4935 12711 1 0.16500 119244.000000
4935 14488 1 0.16500 119244.000000
4936 12711 1 0.16500 119244.000000
4936 15887 1 0.16500 119244.000000
4937 13217 1 0.16500 119244.000000
4937 14950 1 0.16500 119244.000000
4938 19890 1 0.16500 119244.000000
4938 21354 1 0.16500 119244.000000
4939 14950 1 0.16500 119244.000000
4939 19890 1 0.16500 119244.000000
4940 15864 1 0.16500 119244.000000
4940 16157 1 0.16500 119244.000000
4941 12712 1 0.16500 119244.000000
4941 13070 1 0.16500 119244.000000
4942 12712 1 0.16500 119244.000000
4942 16157 1 0.16500 119244.000000
4943 12712 1 0.16500 119244.000000
4943 14701 1 0.16500 119244.000000
4944 12713 1 0.16500 119244.000000
4944 15616 1 0.16500 119244.000000
4945 12713 1 0.16500 119244.000000
4945 14104 1 0.16500 119244.000000
4946 12713 1 0.16500 119244.000000
4946 14898 1 0.16500 119244.000000
4947 12714 1 0.16500 119244.000000
4947 13037 1 0.16500 119244.000000
4948 12714 1 0.16500 119244.000000
4948 16246 1 0.16500 119244.000000
4949 12714 1 0.16500 119244.000000
4949 13326 1 0.16500 119244.000000
4950 12715 1 0.16500 119244.000000
4950 15517 1 0.16500 119244.000000
4951 12715 1 0.16500 119244.000000
4951 15478 1 0.16500 119244.000000
4952 12715 1 0.16500 119244.000000
4952 21906 1 0.16500 119244.000000
4953 12715 1 0.16500 119244.000000
4953 15296 1 0.16500 119244.000000
4954 12716 1 0.16500 119244.000000
4954 15109 1 0.16500 119244.000000
4955 12716 1 0.16500 119244.000000
4955 22209 1 0.16500 119244.000000
4956 12716 1 0.16500 119244.000000
4956 20202 1 0.16500 119244.000000
4957 12717 1 0.16500 119244.000000
4957 15508 1 0.16500 119244.000000
4958 12717 1 0.16500 119244.000000
4958 15071 1 0.16500 119244.000000
4959 12717 1 0.16500 119244.000000
4959 13591 1 0.16500 119244.000000
4960 12717 1 0.16500 119244.000000
4960 14228 1 0.16500 119244.000000
4961 16084 1 0.16500 119244.000000
4961 19902 1 0.16500 119244.000000
4962 12718 1 0.16500 119244.000000
4962 14458 1 0.16500 119244.000000
4963 12718 1 0.16500 119244.000000
4963 21798 1 0.16500 119244.000000
4964 12719 1 0.16500 119244.000000
4964 14183 1 0.16500 119244.000000
4965 12719 1 0.16500 119244.000000
4965 15883 1 0.16500 119244.000000
4966 12719 1 0.16500 119244.000000
4966 14982 1 0.16500 119244.000000
4967 12720 1 0.16500 119244.000000
4967 15889 1 0.16500 119244.000000
4968 12720 1 0.16500 119244.000000
4968 15691 1 0.16500 119244.000000
4969 12721 1 0.16500 119244.000000
4969 16168 1 0.16500 119244.000000
4970 12721 1 0.16500 119244.000000
4970 16036 1 0.16500 119244.000000
4971 12721 1 0.16500 119244.000000
4971 20274 1 0.16500 119244.000000
4972 12722 1 0.16500 119244.000000
4972 15263 1 0.16500 119244.000000
4973 12722 1 0.16500 119244.000000
4973 13139 1 0.16500 119244.000000
4974 12722 1 0.16500 119244.000000
4974 14242 1 0.16500 119244.000000
4975 12722 1 0.16500 119244.000000
4975 15132 1 0.16500 119244.000000
4976 12723 1 0.16500 119244.000000
4976 16300 1 0.16500 119244.000000
4977 12723 1 0.16500 119244.000000
4977 16413 1 0.16500 119244.000000
4978 12723 1 0.16500 119244.000000
4978 16270 1 0.16500 119244.000000
4979 12724 1 0.16500 119244.000000
4979 15703 1 0.16500 119244.000000
4980 12724 1 0.16500 119244.000000
4980 14198 1 0.16500 119244.000000
4981 19914 1 0.16500 119244.000000
4981 21318 1 0.16500 119244.000000
4982 13467 1 0.16500 119244.000000
4982 19914 1 0.16500 119244.000000
4983 12725 1 0.16500 119244.000000
4983 14828 1 0.16500 119244.000000
4984 12725 1 0.16500 119244.000000
4984 14094 1 0.16500 119244.000000
4985 12725 1 0.16500 119244.000000
4985 13545 1 0.16500 119244.000000
4986 12726 1 0.16500 119244.000000
4986 13475 1 0.16500 119244.000000
4987 12726 1 0.16500 119244.000000
4987 13522 1 0.16500 119244.000000
4988 12726 1 0.16500 119244.000000
4988 16115 1 0.16500 119244.000000
4989 12727 1 0.16500 119244.000000
4989 14312 1 0.16500 119244.000000
4990 15961 1 0.16500 119244.000000
4990 19926 1 0.16500 119244.000000
4991 19926 1 0.16500 119244.000000
4991 21198 1 0.16500 119244.000000
4992 12728 1 0.16500 119244.000000
4992 16245 1 0.16500 119244.000000
4993 12728 1 0.16500 119244.000000
4993 14005 1 0.16500 119244.000000
4994 19938 1 0.16500 119244.000000
4994 21912 1 0.16500 119244.000000
4995 13337 1 0.16500 119244.000000
4995 19938 1 0.16500 119244.000000
4996 14539 1 0.16500 119244.000000
4996 19950 1 0.16500 119244.000000
4997 12761 1 0.16500 119244.000000
4997 19950 1 0.16500 119244.000000
4998 12729 1 0.16500 119244.000000
4998 13943 1 0.16500 119244.000000
4999 12729 1 0.16500 119244.000000
4999 14370 1 0.16500 119244.000000
5000 12729 1 0.16500 119244.000000
5000 20910 1 0.16500 119244.000000
5001 12729 1 0.16500 119244.000000
5001 18000 1 0.16500 119244.000000
5002 12730 1 0.16500 119244.000000
5002 13733 1 0.16500 119244.000000
5003 12730 1 0.16500 119244.000000
5003 15223 1 0.16500 119244.000000
5004 12730 1 0.16500 119244.000000
5004 13475 1 0.16500 119244.000000
5005 12731 1 0.16500 119244.000000
5005 14170 1 0.16500 119244.000000
5006 12731 1 0.16500 119244.000000
5006 13900 1 0.16500 119244.000000
5007 12731 1 0.16500 119244.000000
5007 13183 1 0.16500 119244.000000
5008 12732 1 0.16500 119244.000000
5008 12787 1 0.16500 119244.000000
5009 12732 1 0.16500 119244.000000
5009 14549 1 0.16500 119244.000000
5010 12733 1 0.16500 119244.000000
5010 13706 1 0.16500 119244.000000
5011 13706 1 0.16500 119244.000000
5011 15227 1 0.16500 119244.000000
5012 16238 1 0.16500 119244.000000
5012 16331 1 0.16500 119244.000000
5013 12733 1 0.16500 119244.000000
5013 16238 1 0.16500 119244.000000
5014 12734 1 0.16500 119244.000000
5014 14232 1 0.16500 119244.000000
5015 12734 1 0.16500 119244.000000
5015 16343 1 0.16500 119244.000000
5016 12734 1 0.16500 119244.000000
5016 15202 1 0.16500 119244.000000
5017 12734 1 0.16500 119244.000000
5017 14934 1 0.16500 119244.000000
5018 12735 1 0.16500 119244.000000
5018 13033 1 0.16500 119244.000000
5019 12735 1 0.16500 119244.000000
5019 20178 1 0.16500 119244.000000
5020 12735 1 0.16500 119244.000000
5020 21915 1 0.16500 119244.000000
5021 12736 1 0.16500 119244.000000
5021 14987 1 0.16500 119244.000000
5022 12737 1 0.16500 119244.000000
5022 15315 1 0.16500 119244.000000
5023 12737 1 0.16500 119244.000000
5023 13801 1 0.16500 119244.000000
5024 12737 1 0.16500 119244.000000
5024 16439 1 0.16500 119244.000000
5025 12737 1 0.16500 119244.000000
5025 13185 1 0.16500 119244.000000
5026 12738 1 0.16500 119244.000000
5026 14479 1 0.16500 119244.000000
5027 12738 1 0.16500 119244.000000
5027 13176 1 0.16500 119244.000000
5028 13673 1 0.16500 119244.000000
5028 14111 1 0.16500 119244.000000
5029 12739 1 0.16500 119244.000000
5029 13673 1 0.16500 119244.000000
5030 19962 1 0.16500 119244.000000
5030 20730 1 0.16500 119244.000000
5031 13616 1 0.16500 119244.000000
5031 19962 1 0.16500 119244.000000
5032 12740 1 0.16500 119244.000000
5032 14861 1 0.16500 119244.000000
5033 12740 1 0.16500 119244.000000
5033 13598 1 0.16500 119244.000000
5034 12740 1 0.16500 119244.000000
5034 13920 1 0.16500 119244.000000
5035 12740 1 0.16500 119244.000000
5035 14383 1 0.16500 119244.000000
5036 12741 1 0.16500 119244.000000
5036 15582 1 0.16500 119244.000000
5037 12741 1 0.16500 119244.000000
5037 14302 1 0.16500 119244.000000
5038 15079 1 0.16500 119244.000000
5038 19974 1 0.16500 119244.000000
5039 12742 1 0.16500 119244.000000
5039 21378 1 0.16500 119244.000000
5040 12742 1 0.16500 119244.000000
5040 14025 1 0.16500 119244.000000
5041 12742 1 0.16500 119244.000000
5041 21564 1 0.16500 119244.000000
5042 12742 1 0.16500 119244.000000
5042 14334 1 0.16500 119244.000000
5043 16152 1 0.16500 119244.000000
5043 19986 1 0.16500 119244.000000
5044 14931 1 0.16500 119244.000000
5044 19986 1 0.16500 119244.000000
5045 12743 1 0.16500 119244.000000
5045 16213 1 0.16500 119244.000000
5046 12743 1 0.16500 119244.000000
5046 13961 1 0.16500 119244.000000
5047 12743 1 0.16500 119244.000000
5047 13668 1 0.16500 119244.000000
5048 12744 1 0.16500 119244.000000
5048 15472 1 0.16500 119244.000000
5049 15785 1 0.16500 119244.000000
5049 16474 1 0.16500 119244.000000
5050 12744 1 0.16500 119244.000000
5050 16474 1 0.16500 119244.000000
5051 12744 1 0.16500 119244.000000
5051 13312 1 0.16500 119244.000000
5052 12745 1 0.16500 119244.000000
5052 13756 1 0.16500 119244.000000
5053 12745 1 0.16500 119244.000000
5053 14219 1 0.16500 119244.000000
5054 17006 1 0.16500 119244.000000
5054 19998 1 0.16500 119244.000000
5055 13580 1 0.16500 119244.000000
5055 19998 1 0.16500 119244.000000
5056 12746 1 0.16500 119244.000000
5056 13509 1 0.16500 119244.000000
5057 12746 1 0.16500 119244.000000
5057 16260 1 0.16500 119244.000000
5058 12746 1 0.16500 119244.000000
5058 15969 1 0.16500 119244.000000
5059 15288 1 0.16500 119244.000000
5059 16261 1 0.16500 119244.000000
5060 12747 1 0.16500 119244.000000
5060 15439 1 0.16500 119244.000000
5061 12747 1 0.16500 119244.000000
5061 15288 1 0.16500 119244.000000
5062 12748 1 0.16500 119244.000000
5062 12997 1 0.16500 119244.000000
5063 12748 1 0.16500 119244.000000
5063 12919 1 0.16500 119244.000000
5064 12748 1 0.16500 119244.000000
5064 16161 1 0.16500 119244.000000
5065 12749 1 0.16500 119244.000000
5065 14607 1 0.16500 119244.000000
5066 12749 1 0.16500 119244.000000
5066 14013 1 0.16500 119244.000000
5067 12749 1 0.16500 119244.000000
5067 13182 1 0.16500 119244.000000
5068 12750 1 0.16500 119244.000000
5068 14029 1 0.16500 119244.000000
5069 12750 1 0.16500 119244.000000
5069 17160 1 0.16500 119244.000000
5070 12750 1 0.16500 119244.000000
5070 14196 1 0.16500 119244.000000
5071 12751 1 0.16500 119244.000000
5071 16526 1 0.16500 119244.000000
5072 12751 1 0.16500 119244.000000
5072 15817 1 0.16500 119244.000000
5073 12751 1 0.16500 119244.000000
5073 13440 1 0.16500 119244.000000
5074 12752 1 0.16500 119244.000000
5074 13931 1 0.16500 119244.000000
5075 12752 1 0.16500 119244.000000
5075 15466 1 0.16500 119244.000000
5076 12752 1 0.16500 119244.000000
5076 14383 1 0.16500 119244.000000
5077 12752 1 0.16500 119244.000000
5077 15459 1 0.16500 119244.000000
5078 12753 1 0.16500 119244.000000
5078 14297 1 0.16500 119244.000000
5079 12753 1 0.16500 119244.000000
5079 14541 1 0.16500 119244.000000
5080 12753 1 0.16500 119244.000000
5080 15974 1 0.16500 119244.000000
5081 12754 1 0.16500 119244.000000
5081 16510 1 0.16500 119244.000000
5082 12754 1 0.16500 119244.000000
5082 15675 1 0.16500 119244.000000
5083 12755 1 0.16500 119244.000000
5083 14213 1 0.16500 119244.000000
5084 12755 1 0.16500 119244.000000
5084 14205 1 0.16500 119244.000000
5085 12756 1 0.16500 119244.000000
5085 15440 1 0.16500 119244.000000
5086 12756 1 0.16500 119244.000000
5086 13636 1 0.16500 119244.000000
5087 12756 1 0.16500 119244.000000
5087 14943 1 0.16500 119244.000000
5088 12757 1 0.16500 119244.000000
5088 13396 1 0.16500 119244.000000
5089 12757 1 0.16500 119244.000000
5089 15873 1 0.16500 119244.000000
5090 12757 1 0.16500 119244.000000
5090 15490 1 0.16500 119244.000000
5091 12757 1 0.16500 119244.000000
5091 22414 1 0.16500 119244.000000
5092 12758 1 0.16500 119244.000000
5092 22161 1 0.16500 119244.000000
5093 12758 1 0.16500 119244.000000
5093 21330 1 0.16500 119244.000000
5094 12758 1 0.16500 119244.000000
5094 13784 1 0.16500 119244.000000
5095 12758 1 0.16500 119244.000000
5095 21528 1 0.16500 119244.000000
5096 12759 1 0.16500 119244.000000
5096 15979 1 0.16500 119244.000000
5097 12759 1 0.16500 119244.000000
5097 14343 1 0.16500 119244.000000
5098 12759 1 0.16500 119244.000000
5098 14402 1 0.16500 119244.000000
5099 12759 1 0.16500 119244.000000
5099 14677 1 0.16500 119244.000000
5100 12760 1 0.16500 119244.000000
5100 15978 1 0.16500 119244.000000
5101 12760 1 0.16500 119244.000000
5101 14058 1 0.16500 119244.000000
5102 12760 1 0.16500 119244.000000
5102 14666 1 0.16500 119244.000000
5103 12760 1 0.16500 119244.000000
5103 16311 1 0.16500 119244.000000
5104 13186 1 0.16500 119244.000000
5104 20010 1 0.16500 119244.000000
5105 20010 1 0.16500 119244.000000
5105 20490 1 0.16500 119244.000000
5106 12761 1 0.16500 119244.000000
5106 16514 1 0.16500 119244.000000
5107 11867 1 0.16500 119244.000000
5107 12761 1 0.16500 119244.000000
5108 12762 1 0.16500 119244.000000
5108 15367 1 0.16500 119244.000000
5109 12762 1 0.16500 119244.000000
5109 14984 1 0.16500 119244.000000
5110 12762 1 0.16500 119244.000000
5110 14142 1 0.16500 119244.000000
5111 12762 1 0.16500 119244.000000
5111 15474 1 0.16500 119244.000000
5112 12763 1 0.16500 119244.000000
5112 13046 1 0.16500 119244.000000
5113 12763 1 0.16500 119244.000000
5113 13155 1 0.16500 119244.000000
5114 12763 1 0.16500 119244.000000
5114 13614 1 0.16500 119244.000000
5115 13155 1 0.16500 119244.000000
5115 13668 1 0.16500 119244.000000
5116 12764 1 0.16500 119244.000000
5116 16156 1 0.16500 119244.000000
5117 12764 1 0.16500 119244.000000
5117 16503 1 0.16500 119244.000000
5118 12765 1 0.16500 119244.000000
5118 15188 1 0.16500 119244.000000
5119 12765 1 0.16500 119244.000000
5119 15096 1 0.16500 119244.000000
5120 12765 1 0.16500 119244.000000
5120 13798 1 0.16500 119244.000000
5121 12765 1 0.16500 119244.000000
5121 13728 1 0.16500 119244.000000
5122 12766 1 0.16500 119244.000000
5122 14521 1 0.16500 119244.000000
5123 12766 1 0.16500 119244.000000
5123 12767 1 0.16500 119244.000000
5124 12766 1 0.16500 119244.000000
5124 12855 1 0.16500 119244.000000
5125 12767 1 0.16500 119244.000000
5125 14396 1 0.16500 119244.000000
5126 12767 1 0.16500 119244.000000
5126 16228 1 0.16500 119244.000000
5127 12768 1 0.16500 119244.000000
5127 14503 1 0.16500 119244.000000
5128 12768 1 0.16500 119244.000000
5128 15425 1 0.16500 119244.000000
5129 12768 1 0.16500 119244.000000
5129 15962 1 0.16500 119244.000000
5130 20022 1 0.16500 119244.000000
5130 21804 1 0.16500 119244.000000
5131 13996 1 0.16500 119244.000000
5131 20022 1 0.16500 119244.000000
5132 13256 1 0.16500 119244.000000
5132 20022 1 0.16500 119244.000000
5133 12769 1 0.16500 119244.000000
5133 17062 1 0.16500 119244.000000
5134 12769 1 0.16500 119244.000000
5134 20094 1 0.16500 119244.000000
5135 14627 1 0.16500 119244.000000
5135 20034 1 0.16500 119244.000000
5136 13431 1 0.16500 119244.000000
5136 20034 1 0.16500 119244.000000
5137 12770 1 0.16500 119244.000000
5137 15137 1 0.16500 119244.000000
5138 11927 1 0.16500 119244.000000
5138 12770 1 0.16500 119244.000000
5139 12770 1 0.16500 119244.000000
5139 15498 1 0.16500 119244.000000
5140 12770 1 0.16500 119244.000000
5140 13793 1 0.16500 119244.000000
5141 17202 1 0.16500 119244.000000
5141 20046 1 0.16500 119244.000000
5142 16444 1 0.16500 119244.000000
5142 20046 1 0.16500 119244.000000
5143 15236 1 0.16500 119244.000000
5143 20046 1 0.16500 119244.000000
5144 12771 1 0.16500 119244.000000
5144 13739 1 0.16500 119244.000000
5145 12771 1 0.16500 119244.000000
5145 15586 1 0.16500 119244.000000
5146 12771 1 0.16500 119244.000000
5146 13477 1 0.16500 119244.000000
5147 12771 1 0.16500 119244.000000
5147 14985 1 0.16500 119244.000000
5148 12772 1 0.16500 119244.000000
5148 15176 1 0.16500 119244.000000
5149 12772 1 0.16500 119244.000000
5149 13846 1 0.16500 119244.000000
5150 12772 1 0.16500 119244.000000
5150 14257 1 0.16500 119244.000000
5151 12773 1 0.16500 119244.000000
5151 13906 1 0.16500 119244.000000
5152 12773 1 0.16500 119244.000000
5152 14654 1 0.16500 119244.000000
5153 12773 1 0.16500 119244.000000
5153 15653 1 0.16500 119244.000000
5154 12774 1 0.16500 119244.000000
5154 14223 1 0.16500 119244.000000
5155 12774 1 0.16500 119244.000000
5155 12837 1 0.16500 119244.000000
5156 12774 1 0.16500 119244.000000
5156 12890 1 0.16500 119244.000000
5157 11364 1 0.16500 119244.000000
5157 12775 1 0.16500 119244.000000
5158 12775 1 0.16500 119244.000000
5158 12828 1 0.16500 119244.000000
5159 12775 1 0.16500 119244.000000
5159 13102 1 0.16500 119244.000000
5160 12775 1 0.16500 119244.000000
5160 14210 1 0.16500 119244.000000
5161 11664 1 0.16500 119244.000000
5161 16335 1 0.16500 119244.000000
5162 12776 1 0.16500 119244.000000
5162 16335 1 0.16500 119244.000000
5163 12777 1 0.16500 119244.000000
5163 13382 1 0.16500 119244.000000
5164 12777 1 0.16500 119244.000000
5164 14927 1 0.16500 119244.000000
5165 12778 1 0.16500 119244.000000
5165 15494 1 0.16500 119244.000000
5166 12778 1 0.16500 119244.000000
5166 13145 1 0.16500 119244.000000
5167 12779 1 0.16500 119244.000000
5167 16207 1 0.16500 119244.000000
5168 12779 1 0.16500 119244.000000
5168 16411 1 0.16500 119244.000000
5169 12780 1 0.16500 119244.000000
5169 14535 1 0.16500 119244.000000
5170 12780 1 0.16500 119244.000000
5170 15618 1 0.16500 119244.000000
5171 12781 1 0.16500 119244.000000
5171 20142 1 0.16500 119244.000000
5172 20070 1 0.16500 119244.000000
5172 20358 1 0.16500 119244.000000
5173 17412 1 0.16500 119244.000000
5173 20082 1 0.16500 119244.000000
5174 15342 1 0.16500 119244.000000
5174 20082 1 0.16500 119244.000000
5175 12782 1 0.16500 119244.000000
5175 16558 1 0.16500 119244.000000
5176 12782 1 0.16500 119244.000000
5176 15636 1 0.16500 119244.000000
5177 12782 1 0.16500 119244.000000
5177 15878 1 0.16500 119244.000000
5178 11620 1 0.16500 119244.000000
5178 12782 1 0.16500 119244.000000
5179 12783 1 0.16500 119244.000000
5179 14915 1 0.16500 119244.000000
5180 12783 1 0.16500 119244.000000
5180 15211 1 0.16500 119244.000000
5181 12783 1 0.16500 119244.000000
5181 12848 1 0.16500 119244.000000
5182 12784 1 0.16500 119244.000000
5182 16880 1 0.16500 119244.000000
5183 12784 1 0.16500 119244.000000
5183 21630 1 0.16500 119244.000000
5184 12784 1 0.16500 119244.000000
5184 15229 1 0.16500 119244.000000
5185 12785 1 0.16500 119244.000000
5185 15426 1 0.16500 119244.000000
5186 12785 1 0.16500 119244.000000
5186 16163 1 0.16500 119244.000000
5187 12785 1 0.16500 119244.000000
5187 13525 1 0.16500 119244.000000
5188 12786 1 0.16500 119244.000000
5188 22266 1 0.16500 119244.000000
5189 12786 1 0.16500 119244.000000
5189 15207 1 0.16500 119244.000000
5190 12787 1 0.16500 119244.000000
5190 15738 1 0.16500 119244.000000
5191 12788 1 0.16500 119244.000000
5191 13933 1 0.16500 119244.000000
5192 12788 1 0.16500 119244.000000
5192 14065 1 0.16500 119244.000000
5193 12788 1 0.16500 119244.000000
5193 13713 1 0.16500 119244.000000
5194 12789 1 0.16500 119244.000000
5194 14832 1 0.16500 119244.000000
5195 12789 1 0.16500 119244.000000
5195 16112 1 0.16500 119244.000000
5196 12789 1 0.16500 119244.000000
5196 13919 1 0.16500 119244.000000
5197 11709 1 0.16500 119244.000000
5197 12790 1 0.16500 119244.000000
5198 12790 1 0.16500 119244.000000
5198 16339 1 0.16500 119244.000000
5199 12790 1 0.16500 119244.000000
5199 13684 1 0.16500 119244.000000
5200 12791 1 0.16500 119244.000000
5200 16480 1 0.16500 119244.000000
5201 12791 1 0.16500 119244.000000
5201 13374 1 0.16500 119244.000000
5202 12791 1 0.16500 119244.000000
5202 13343 1 0.16500 119244.000000
5203 12792 1 0.16500 119244.000000
5203 14113 1 0.16500 119244.000000
5204 11725 1 0.16500 119244.000000
5204 12792 1 0.16500 119244.000000
5205 12792 1 0.16500 119244.000000
5205 12943 1 0.16500 119244.000000
5206 12793 1 0.16500 119244.000000
5206 14182 1 0.16500 119244.000000
5207 13487 1 0.16500 119244.000000
5207 14182 1 0.16500 119244.000000
5208 12793 1 0.16500 119244.000000
5208 14203 1 0.16500 119244.000000
5209 12793 1 0.16500 119244.000000
5209 15683 1 0.16500 119244.000000
5210 12794 1 0.16500 119244.000000
5210 13761 1 0.16500 119244.000000
5211 12794 1 0.16500 119244.000000
5211 14728 1 0.16500 119244.000000
5212 12794 1 0.16500 119244.000000
5212 14171 1 0.16500 119244.000000
5213 12794 1 0.16500 119244.000000
5213 16167 1 0.16500 119244.000000
5214 12795 1 0.16500 119244.000000
5214 12948 1 0.16500 119244.000000
5215 12795 1 0.16500 119244.000000
5215 16357 1 0.16500 119244.000000
5216 12795 1 0.16500 119244.000000
5216 21747 1 0.16500 119244.000000
5217 12796 1 0.16500 119244.000000
5217 13006 1 0.16500 119244.000000
5218 12796 1 0.16500 119244.000000
5218 13141 1 0.16500 119244.000000
5219 12796 1 0.16500 119244.000000
5219 13171 1 0.16500 119244.000000
5220 12796 1 0.16500 119244.000000
5220 15886 1 0.16500 119244.000000
5221 15764 1 0.16500 119244.000000
5221 20094 1 0.16500 119244.000000
5222 12797 1 0.16500 119244.000000
5222 16278 1 0.16500 119244.000000
5223 13993 1 0.16500 119244.000000
5223 14800 1 0.16500 119244.000000
5224 12798 1 0.16500 119244.000000
5224 13993 1 0.16500 119244.000000
5225 12798 1 0.16500 119244.000000
5225 16105 1 0.16500 119244.000000
5226 12798 1 0.16500 119244.000000
5226 16090 1 0.16500 119244.000000
5227 12799 1 0.16500 119244.000000
5227 16096 1 0.16500 119244.000000
5228 12799 1 0.16500 119244.000000
5228 14887 1 0.16500 119244.000000
5229 12799 1 0.16500 119244.000000
5229 13325 1 0.16500 119244.000000
5230 12799 1 0.16500 119244.000000
5230 14751 1 0.16500 119244.000000
5231 15397 1 0.16500 119244.000000
5231 15493 1 0.16500 119244.000000
5232 12800 1 0.16500 119244.000000
5232 13311 1 0.16500 119244.000000
5233 12800 1 0.16500 119244.000000
5233 15397 1 0.16500 119244.000000
5234 20106 1 0.16500 119244.000000
5234 20838 1 0.16500 119244.000000
5235 14520 1 0.16500 119244.000000
5235 20106 1 0.16500 119244.000000
5236 12801 1 0.16500 119244.000000
5236 13629 1 0.16500 119244.000000
5237 12801 1 0.16500 119244.000000
5237 15797 1 0.16500 119244.000000
5238 12802 1 0.16500 119244.000000
5238 15926 1 0.16500 119244.000000
5239 14726 1 0.16500 119244.000000
5239 15926 1 0.16500 119244.000000
5240 12802 1 0.16500 119244.000000
5240 14893 1 0.16500 119244.000000
5241 12802 1 0.16500 119244.000000
5241 14487 1 0.16500 119244.000000
5242 12803 1 0.16500 119244.000000
5242 13662 1 0.16500 119244.000000
5243 12803 1 0.16500 119244.000000
5243 14963 1 0.16500 119244.000000
5244 12803 1 0.16500 119244.000000
5244 15953 1 0.16500 119244.000000
5245 12803 1 0.16500 119244.000000
5245 13280 1 0.16500 119244.000000
5246 12804 1 0.16500 119244.000000
5246 13467 1 0.16500 119244.000000
5247 12804 1 0.16500 119244.000000
5247 13669 1 0.16500 119244.000000
5248 12804 1 0.16500 119244.000000
5248 13520 1 0.16500 119244.000000
5249 12805 1 0.16500 119244.000000
5249 14085 1 0.16500 119244.000000
5250 12805 1 0.16500 119244.000000
5250 14020 1 0.16500 119244.000000
5251 12805 1 0.16500 119244.000000
5251 21042 1 0.16500 119244.000000
5252 15652 1 0.16500 119244.000000
5252 15790 1 0.16500 119244.000000
5253 12806 1 0.16500 119244.000000
5253 15790 1 0.16500 119244.000000
5254 12806 1 0.16500 119244.000000
5254 15115 1 0.16500 119244.000000
5255 12806 1 0.16500 119244.000000
5255 15833 1 0.16500 119244.000000
5256 20118 1 0.16500 119244.000000
5256 21708 1 0.16500 119244.000000
5257 17272 1 0.16500 119244.000000
5257 20118 1 0.16500 119244.000000
5258 12807 1 0.16500 119244.000000
5258 16768 1 0.16500 119244.000000
5259 12807 1 0.16500 119244.000000
5259 15076 1 0.16500 119244.000000
5260 15857 1 0.16500 119244.000000
5260 20130 1 0.16500 119244.000000
5261 13667 1 0.16500 119244.000000
5261 20130 1 0.16500 119244.000000
5262 12808 1 0.16500 119244.000000
5262 16401 1 0.16500 119244.000000
5263 12808 1 0.16500 119244.000000
5263 15951 1 0.16500 119244.000000
5264 12808 1 0.16500 119244.000000
5264 15270 1 0.16500 119244.000000
5265 12809 1 0.16500 119244.000000
5265 14451 1 0.16500 119244.000000
5266 12809 1 0.16500 119244.000000
5266 16401 1 0.16500 119244.000000
5267 12810 1 0.16500 119244.000000
5267 13842 1 0.16500 119244.000000
5268 12810 1 0.16500 119244.000000
5268 20730 1 0.16500 119244.000000
5269 12810 1 0.16500 119244.000000
5269 22302 1 0.16500 119244.000000
5270 12810 1 0.16500 119244.000000
5270 22224 1 0.16500 119244.000000
5271 12811 1 0.16500 119244.000000
5271 14378 1 0.16500 119244.000000
5272 12811 1 0.16500 119244.000000
5272 15200 1 0.16500 119244.000000
5273 12811 1 0.16500 119244.000000
5273 13542 1 0.16500 119244.000000
5274 12812 1 0.16500 119244.000000
5274 14940 1 0.16500 119244.000000
5275 12812 1 0.16500 119244.000000
5275 14187 1 0.16500 119244.000000
5276 12812 1 0.16500 119244.000000
5276 12852 1 0.16500 119244.000000
5277 12813 1 0.16500 119244.000000
5277 13584 1 0.16500 119244.000000
5278 12813 1 0.16500 119244.000000
5278 16197 1 0.16500 119244.000000
5279 12813 1 0.16500 119244.000000
5279 15513 1 0.16500 119244.000000
5280 12813 1 0.16500 119244.000000
5280 14610 1 0.16500 119244.000000
5281 12814 1 0.16500 119244.000000
5281 14132 1 0.16500 119244.000000
5282 12814 1 0.16500 119244.000000
5282 16160 1 0.16500 119244.000000
5283 12814 1 0.16500 119244.000000
5283 13000 1 0.16500 119244.000000
5284 12814 1 0.16500 119244.000000
5284 14163 1 0.16500 119244.000000
5285 12815 1 0.16500 119244.000000
5285 16490 1 0.16500 119244.000000
5286 12815 1 0.16500 119244.000000
5286 15548 1 0.16500 119244.000000
5287 20142 1 0.16500 119244.000000
5287 21966 1 0.16500 119244.000000
5288 20142 1 0.16500 119244.000000
5288 21519 1 0.16500 119244.000000
5289 12816 1 0.16500 119244.000000
5289 15949 1 0.16500 119244.000000
5290 12816 1 0.16500 119244.000000
5290 13248 1 0.16500 119244.000000
5291 12816 1 0.16500 119244.000000
5291 13643 1 0.16500 119244.000000
5292 12817 1 0.16500 119244.000000
5292 13887 1 0.16500 119244.000000
5293 12817 1 0.16500 119244.000000
5293 13133 1 0.16500 119244.000000
5294 12817 1 0.16500 119244.000000
5294 14936 1 0.16500 119244.000000
5295 12818 1 0.16500 119244.000000
5295 14585 1 0.16500 119244.000000
5296 12818 1 0.16500 119244.000000
5296 13568 1 0.16500 119244.000000
5297 12818 1 0.16500 119244.000000
5297 21960 1 0.16500 119244.000000
5298 13447 1 0.16500 119244.000000
5298 20154 1 0.16500 119244.000000
5299 20154 1 0.16500 119244.000000
5299 21639 1 0.16500 119244.000000
5300 11432 1 0.16500 119244.000000
5300 12819 1 0.16500 119244.000000
5301 12819 1 0.16500 119244.000000
5301 15271 1 0.16500 119244.000000
5302 12819 1 0.16500 119244.000000
5302 14827 1 0.16500 119244.000000
5303 12820 1 0.16500 119244.000000
5303 13678 1 0.16500 119244.000000
5304 12820 1 0.16500 119244.000000
5304 14118 1 0.16500 119244.000000
5305 12821 1 0.16500 119244.000000
5305 14169 1 0.16500 119244.000000
5306 12821 1 0.16500 119244.000000
5306 15290 1 0.16500 119244.000000
5307 12821 1 0.16500 119244.000000
5307 21702 1 0.16500 119244.000000
5308 12822 1 0.16500 119244.000000
5308 12832 1 0.16500 119244.000000
5309 12822 1 0.16500 119244.000000
5309 14001 1 0.16500 119244.000000
5310 12822 1 0.16500 119244.000000
5310 13980 1 0.16500 119244.000000
5311 12822 1 0.16500 119244.000000
5311 13792 1 0.16500 119244.000000
5312 12823 1 0.16500 119244.000000
5312 13209 1 0.16500 119244.000000
5313 12824 1 0.16500 119244.000000
5313 13823 1 0.16500 119244.000000
5314 12824 1 0.16500 119244.000000
5314 14096 1 0.16500 119244.000000
5315 12824 1 0.16500 119244.000000
5315 14189 1 0.16500 119244.000000
5316 12824 1 0.16500 119244.000000
5316 16051 1 0.16500 119244.000000
5317 12825 1 0.16500 119244.000000
5317 12947 1 0.16500 119244.000000
5318 12825 1 0.16500 119244.000000
5318 12867 1 0.16500 119244.000000
5319 12825 1 0.16500 119244.000000
5319 13278 1 0.16500 119244.000000
5320 12825 1 0.16500 119244.000000
5320 15664 1 0.16500 119244.000000
5321 12826 1 0.16500 119244.000000
5321 14773 1 0.16500 119244.000000
5322 12826 1 0.16500 119244.000000
5322 21330 1 0.16500 119244.000000
5323 12826 1 0.16500 119244.000000
5323 14196 1 0.16500 119244.000000
5324 16295 1 0.16500 119244.000000
5324 20166 1 0.16500 119244.000000
5325 20166 1 0.16500 119244.000000
5325 21849 1 0.16500 119244.000000
5326 12827 1 0.16500 119244.000000
5326 14256 1 0.16500 119244.000000
5327 12827 1 0.16500 119244.000000
5327 15222 1 0.16500 119244.000000
5328 12827 1 0.16500 119244.000000
5328 13699 1 0.16500 119244.000000
5329 12828 1 0.16500 119244.000000
5329 14318 1 0.16500 119244.000000
5330 12829 1 0.16500 119244.000000
5330 13856 1 0.16500 119244.000000
5331 12829 1 0.16500 119244.000000
5331 14564 1 0.16500 119244.000000
5332 12829 1 0.16500 119244.000000
5332 16298 1 0.16500 119244.000000
5333 12830 1 0.16500 119244.000000
5333 17776 1 0.16500 119244.000000
5334 12830 1 0.16500 119244.000000
5334 15141 1 0.16500 119244.000000
5335 13764 1 0.16500 119244.000000
5335 15454 1 0.16500 119244.000000
5336 12831 1 0.16500 119244.000000
5336 14008 1 0.16500 119244.000000
5337 14008 1 0.16500 119244.000000
5337 15454 1 0.16500 119244.000000
5338 14185 1 0.16500 119244.000000
5338 15454 1 0.16500 119244.000000
5339 12832 1 0.16500 119244.000000
5339 16021 1 0.16500 119244.000000
5340 12832 1 0.16500 119244.000000
5340 13162 1 0.16500 119244.000000
5341 12832 1 0.16500 119244.000000
5341 15467 1 0.16500 119244.000000
5342 12833 1 0.16500 119244.000000
5342 15589 1 0.16500 119244.000000
5343 12833 1 0.16500 119244.000000
5343 15613 1 0.16500 119244.000000
5344 20178 1 0.16500 119244.000000
5344 21729 1 0.16500 119244.000000
5345 12834 1 0.16500 119244.000000
5345 13563 1 0.16500 119244.000000
5346 12834 1 0.16500 119244.000000
5346 12995 1 0.16500 119244.000000
5347 12834 1 0.16500 119244.000000
5347 14897 1 0.16500 119244.000000
5348 12835 1 0.16500 119244.000000
5348 21777 1 0.16500 119244.000000
5349 12835 1 0.16500 119244.000000
5349 15759 1 0.16500 119244.000000
5350 12835 1 0.16500 119244.000000
5350 13634 1 0.16500 119244.000000
5351 12836 1 0.16500 119244.000000
5351 13316 1 0.16500 119244.000000
5352 20190 1 0.16500 119244.000000
5352 21624 1 0.16500 119244.000000
5353 15880 1 0.16500 119244.000000
5353 20202 1 0.16500 119244.000000
5354 12837 1 0.16500 119244.000000
5354 15236 1 0.16500 119244.000000
5355 12837 1 0.16500 119244.000000
5355 13472 1 0.16500 119244.000000
5356 20214 1 0.16500 119244.000000
5356 22188 1 0.16500 119244.000000
5357 12838 1 0.16500 119244.000000
5357 12886 1 0.16500 119244.000000
5358 12838 1 0.16500 119244.000000
5358 16430 1 0.16500 119244.000000
5359 11856 1 0.16500 119244.000000
5359 12838 1 0.16500 119244.000000
5360 12838 1 0.16500 119244.000000
5360 13817 1 0.16500 119244.000000
5361 12839 1 0.16500 119244.000000
5361 21006 1 0.16500 119244.000000
5362 12839 1 0.16500 119244.000000
5362 15937 1 0.16500 119244.000000
5363 12839 1 0.16500 119244.000000
5363 14256 1 0.16500 119244.000000
5364 12840 1 0.16500 119244.000000
5364 15312 1 0.16500 119244.000000
5365 12840 1 0.16500 119244.000000
5365 15654 1 0.16500 119244.000000
5366 12841 1 0.16500 119244.000000
5366 15983 1 0.16500 119244.000000
5367 12841 1 0.16500 119244.000000
5367 13647 1 0.16500 119244.000000
5368 12841 1 0.16500 119244.000000
5368 15658 1 0.16500 119244.000000
5369 12842 1 0.16500 119244.000000
5369 13797 1 0.16500 119244.000000
5370 12842 1 0.16500 119244.000000
5370 12857 1 0.16500 119244.000000
5371 12842 1 0.16500 119244.000000
5371 15499 1 0.16500 119244.000000
5372 12843 1 0.16500 119244.000000
5372 14641 1 0.16500 119244.000000
5373 15866 1 0.16500 119244.000000
5373 20226 1 0.16500 119244.000000
5374 20226 1 0.16500 119244.000000
5374 21633 1 0.16500 119244.000000
5375 13446 1 0.16500 119244.000000
5375 14376 1 0.16500 119244.000000
5376 13446 1 0.16500 119244.000000
5376 16160 1 0.16500 119244.000000
5377 12844 1 0.16500 119244.000000
5377 15499 1 0.16500 119244.000000
5378 12844 1 0.16500 119244.000000
5378 15204 1 0.16500 119244.000000
5379 12845 1 0.16500 119244.000000
5379 15625 1 0.16500 119244.000000
5380 12160 1 0.16500 119244.000000
5380 12845 1 0.16500 119244.000000
5381 12846 1 0.16500 119244.000000
5381 15815 1 0.16500 119244.000000
5382 12847 1 0.16500 119244.000000
5382 14256 1 0.16500 119244.000000
5383 12847 1 0.16500 119244.000000
5383 13742 1 0.16500 119244.000000
5384 12847 1 0.16500 119244.000000
5384 12961 1 0.16500 119244.000000
5385 12848 1 0.16500 119244.000000
5385 15893 1 0.16500 119244.000000
5386 12848 1 0.16500 119244.000000
5386 13400 1 0.16500 119244.000000
5387 12848 1 0.16500 119244.000000
5387 13767 1 0.16500 119244.000000
5388 12849 1 0.16500 119244.000000
5388 13970 1 0.16500 119244.000000
5389 12849 1 0.16500 119244.000000
5389 13516 1 0.16500 119244.000000
5390 12849 1 0.16500 119244.000000
5390 13297 1 0.16500 119244.000000
5391 15253 1 0.16500 119244.000000
5391 20238 1 0.16500 119244.000000
5392 20238 1 0.16500 119244.000000
5392 21951 1 0.16500 119244.000000
5393 12308 1 0.16500 119244.000000
5393 20250 1 0.16500 119244.000000
5394 15891 1 0.16500 119244.000000
5394 20250 1 0.16500 119244.000000
5395 12850 1 0.16500 119244.000000
5395 13021 1 0.16500 119244.000000
5396 12850 1 0.16500 119244.000000
5396 12944 1 0.16500 119244.000000
5397 12850 1 0.16500 119244.000000
5397 13265 1 0.16500 119244.000000
5398 12850 1 0.16500 119244.000000
5398 14560 1 0.16500 119244.000000
5399 12851 1 0.16500 119244.000000
5399 16397 1 0.16500 119244.000000
5400 12851 1 0.16500 119244.000000
5400 16322 1 0.16500 119244.000000
5401 12851 1 0.16500 119244.000000
5401 13251 1 0.16500 119244.000000
5402 12851 1 0.16500 119244.000000
5402 13831 1 0.16500 119244.000000
5403 12852 1 0.16500 119244.000000
5403 13585 1 0.16500 119244.000000
5404 12852 1 0.16500 119244.000000
5404 12873 1 0.16500 119244.000000
5405 12852 1 0.16500 119244.000000
5405 15128 1 0.16500 119244.000000
5406 12853 1 0.16500 119244.000000
5406 13909 1 0.16500 119244.000000
5407 12853 1 0.16500 119244.000000
5407 13333 1 0.16500 119244.000000
5408 12853 1 0.16500 119244.000000
5408 13344 1 0.16500 119244.000000
5409 12854 1 0.16500 119244.000000
5409 15721 1 0.16500 119244.000000
5410 11966 1 0.16500 119244.000000
5410 12854 1 0.16500 119244.000000
5411 12855 1 0.16500 119244.000000
5411 15742 1 0.16500 119244.000000
5412 12855 1 0.16500 119244.000000
5412 15166 1 0.16500 119244.000000
5413 12856 1 0.16500 119244.000000
5413 16076 1 0.16500 119244.000000
5414 12856 1 0.16500 119244.000000
5414 21825 1 0.16500 119244.000000
5415 20262 1 0.16500 119244.000000
5415 22341 1 0.16500 119244.000000
5416 13751 1 0.16500 119244.000000
5416 20262 1 0.16500 119244.000000
5417 12857 1 0.16500 119244.000000
5417 16205 1 0.16500 119244.000000
5418 12857 1 0.16500 119244.000000
5418 16406 1 0.16500 119244.000000
5419 12844 1 0.16500 119244.000000
5419 12857 1 0.16500 119244.000000
5420 12858 1 0.16500 119244.000000
5420 15081 1 0.16500 119244.000000
5421 12858 1 0.16500 119244.000000
5421 14104 1 0.16500 119244.000000
5422 12858 1 0.16500 119244.000000
5422 13387 1 0.16500 119244.000000
5423 12858 1 0.16500 119244.000000
5423 16290 1 0.16500 119244.000000
5424 12859 1 0.16500 119244.000000
5424 21150 1 0.16500 119244.000000
5425 12859 1 0.16500 119244.000000
5425 14896 1 0.16500 119244.000000
5426 12859 1 0.16500 119244.000000
5426 15451 1 0.16500 119244.000000
5427 20286 1 0.16500 119244.000000
5427 21828 1 0.16500 119244.000000
5428 20286 1 0.16500 119244.000000
5428 22032 1 0.16500 119244.000000
5429 12860 1 0.16500 119244.000000
5429 13676 1 0.16500 119244.000000
5430 12860 1 0.16500 119244.000000
5430 14817 1 0.16500 119244.000000
5431 12861 1 0.16500 119244.000000
5431 13358 1 0.16500 119244.000000
5432 12861 1 0.16500 119244.000000
5432 14467 1 0.16500 119244.000000
5433 12861 1 0.16500 119244.000000
5433 13373 1 0.16500 119244.000000
5434 12862 1 0.16500 119244.000000
5434 14356 1 0.16500 119244.000000
5435 12862 1 0.16500 119244.000000
5435 16369 1 0.16500 119244.000000
5436 12862 1 0.16500 119244.000000
5436 16510 1 0.16500 119244.000000
5437 12863 1 0.16500 119244.000000
5437 17510 1 0.16500 119244.000000
5438 12863 1 0.16500 119244.000000
5438 14352 1 0.16500 119244.000000
5439 12863 1 0.16500 119244.000000
5439 12892 1 0.16500 119244.000000
5440 18978 1 0.16500 119244.000000
5440 21672 1 0.16500 119244.000000
5441 12864 1 0.16500 119244.000000
5441 15254 1 0.16500 119244.000000
5442 12864 1 0.16500 119244.000000
5442 22083 1 0.16500 119244.000000
5443 12864 1 0.16500 119244.000000
5443 13421 1 0.16500 119244.000000
5444 12865 1 0.16500 119244.000000
5444 14422 1 0.16500 119244.000000
5445 14070 1 0.16500 119244.000000
5445 16324 1 0.16500 119244.000000
5446 12866 1 0.16500 119244.000000
5446 14070 1 0.16500 119244.000000
5447 12866 1 0.16500 119244.000000
5447 15698 1 0.16500 119244.000000
5448 12867 1 0.16500 119244.000000
5448 17272 1 0.16500 119244.000000
5449 12867 1 0.16500 119244.000000
5449 16070 1 0.16500 119244.000000
5450 11587 1 0.16500 119244.000000
5450 12868 1 0.16500 119244.000000
5451 11810 1 0.16500 119244.000000
5451 14868 1 0.16500 119244.000000
5452 11810 1 0.16500 119244.000000
5452 14879 1 0.16500 119244.000000
5453 12869 1 0.16500 119244.000000
5453 14834 1 0.16500 119244.000000
5454 12869 1 0.16500 119244.000000
5454 15888 1 0.16500 119244.000000
5455 12869 1 0.16500 119244.000000
5455 15566 1 0.16500 119244.000000
5456 12870 1 0.16500 119244.000000
5456 16472 1 0.16500 119244.000000
5457 12870 1 0.16500 119244.000000
5457 15569 1 0.16500 119244.000000
5458 12870 1 0.16500 119244.000000
5458 15240 1 0.16500 119244.000000
5459 12870 1 0.16500 119244.000000
5459 13928 1 0.16500 119244.000000
5460 12871 1 0.16500 119244.000000
5460 21510 1 0.16500 119244.000000
5461 12871 1 0.16500 119244.000000
5461 15372 1 0.16500 119244.000000
5462 12871 1 0.16500 119244.000000
5462 17342 1 0.16500 119244.000000
5463 12871 1 0.16500 119244.000000
5463 21642 1 0.16500 119244.000000
5464 13092 1 0.16500 119244.000000
5464 13252 1 0.16500 119244.000000
5465 12873 1 0.16500 119244.000000
5465 13558 1 0.16500 119244.000000
5466 12873 1 0.16500 119244.000000
5466 13092 1 0.16500 119244.000000
5467 20298 1 0.16500 119244.000000
5467 22023 1 0.16500 119244.000000
5468 20298 1 0.16500 119244.000000
5468 22320 1 0.16500 119244.000000
5469 13019 1 0.16500 119244.000000
5469 20298 1 0.16500 119244.000000
5470 12874 1 0.16500 119244.000000
5470 14490 1 0.16500 119244.000000
5471 12874 1 0.16500 119244.000000
5471 15573 1 0.16500 119244.000000
5472 20310 1 0.16500 119244.000000
5472 20718 1 0.16500 119244.000000
5473 15766 1 0.16500 119244.000000
5473 20310 1 0.16500 119244.000000
5474 12875 1 0.16500 119244.000000
5474 15210 1 0.16500 119244.000000
5475 12875 1 0.16500 119244.000000
5475 13503 1 0.16500 119244.000000
5476 11586 1 0.16500 119244.000000
5476 15933 1 0.16500 119244.000000
5477 12877 1 0.16500 119244.000000
5477 16189 1 0.16500 119244.000000
5478 12877 1 0.16500 119244.000000
5478 14718 1 0.16500 119244.000000
5479 12878 1 0.16500 119244.000000
5479 15839 1 0.16500 119244.000000
5480 12878 1 0.16500 119244.000000
5480 15484 1 0.16500 119244.000000
5481 12878 1 0.16500 119244.000000
5481 16284 1 0.16500 119244.000000
5482 12878 1 0.16500 119244.000000
5482 14369 1 0.16500 119244.000000
5483 12879 1 0.16500 119244.000000
5483 16087 1 0.16500 119244.000000
5484 12879 1 0.16500 119244.000000
5484 13818 1 0.16500 119244.000000
5485 12879 1 0.16500 119244.000000
5485 13390 1 0.16500 119244.000000
5486 12880 1 0.16500 119244.000000
5486 13728 1 0.16500 119244.000000
5487 12880 1 0.16500 119244.000000
5487 16505 1 0.16500 119244.000000
5488 12881 1 0.16500 119244.000000
5488 14555 1 0.16500 119244.000000
5489 12881 1 0.16500 119244.000000
5489 14934 1 0.16500 119244.000000
5490 12881 1 0.16500 119244.000000
5490 13791 1 0.16500 119244.000000
5491 12882 1 0.16500 119244.000000
5491 14211 1 0.16500 119244.000000
5492 12882 1 0.16500 119244.000000
5492 14163 1 0.16500 119244.000000
5493 12882 1 0.16500 119244.000000
5493 15440 1 0.16500 119244.000000
5494 12883 1 0.16500 119244.000000
5494 14491 1 0.16500 119244.000000
5495 12883 1 0.16500 119244.000000
5495 14153 1 0.16500 119244.000000
5496 16329 1 0.16500 119244.000000
5496 20322 1 0.16500 119244.000000
5497 15427 1 0.16500 119244.000000
5497 20322 1 0.16500 119244.000000
5498 20322 1 0.16500 119244.000000
5498 20862 1 0.16500 119244.000000
5499 12884 1 0.16500 119244.000000
5499 15056 1 0.16500 119244.000000
5500 12884 1 0.16500 119244.000000
5500 16313 1 0.16500 119244.000000
5501 20334 1 0.16500 119244.000000
5501 21528 1 0.16500 119244.000000
5502 14722 1 0.16500 119244.000000
5502 20334 1 0.16500 119244.000000
5503 16112 1 0.16500 119244.000000
5503 20334 1 0.16500 119244.000000
5504 12885 1 0.16500 119244.000000
5504 17244 1 0.16500 119244.000000
5505 12885 1 0.16500 119244.000000
5505 15832 1 0.16500 119244.000000
5506 12885 1 0.16500 119244.000000
5506 20418 1 0.16500 119244.000000
5507 12886 1 0.16500 119244.000000
5507 15861 1 0.16500 119244.000000
5508 12886 1 0.16500 119244.000000
5508 15022 1 0.16500 119244.000000
5509 12886 1 0.16500 119244.000000
5509 15565 1 0.16500 119244.000000
5510 12887 1 0.16500 119244.000000
5510 13165 1 0.16500 119244.000000
5511 12887 1 0.16500 119244.000000
5511 14441 1 0.16500 119244.000000
5512 12888 1 0.16500 119244.000000
5512 16141 1 0.16500 119244.000000
5513 12888 1 0.16500 119244.000000
5513 16503 1 0.16500 119244.000000
5514 12888 1 0.16500 119244.000000
5514 14245 1 0.16500 119244.000000
5515 12888 1 0.16500 119244.000000
5515 15331 1 0.16500 119244.000000
5516 15710 1 0.16500 119244.000000
5516 20346 1 0.16500 119244.000000
5517 12889 1 0.16500 119244.000000
5517 16472 1 0.16500 119244.000000
5518 12889 1 0.16500 119244.000000
5518 13719 1 0.16500 119244.000000
5519 12889 1 0.16500 119244.000000
5519 13193 1 0.16500 119244.000000
5520 12890 1 0.16500 119244.000000
5520 15304 1 0.16500 119244.000000
5521 12890 1 0.16500 119244.000000
5521 12943 1 0.16500 119244.000000
5522 12890 1 0.16500 119244.000000
5522 15243 1 0.16500 119244.000000
5523 12891 1 0.16500 119244.000000
5523 14447 1 0.16500 119244.000000
5524 12891 1 0.16500 119244.000000
5524 14408 1 0.16500 119244.000000
5525 12892 1 0.16500 119244.000000
5525 16237 1 0.16500 119244.000000
5526 14081 1 0.16500 119244.000000
5526 20358 1 0.16500 119244.000000
5527 20358 1 0.16500 119244.000000
5527 20658 1 0.16500 119244.000000
5528 12893 1 0.16500 119244.000000
5528 13775 1 0.16500 119244.000000
5529 12893 1 0.16500 119244.000000
5529 14947 1 0.16500 119244.000000
5530 12893 1 0.16500 119244.000000
5530 13415 1 0.16500 119244.000000
5531 12893 1 0.16500 119244.000000
5531 14374 1 0.16500 119244.000000
5532 12894 1 0.16500 119244.000000
5532 13084 1 0.16500 119244.000000
5533 12894 1 0.16500 119244.000000
5533 13149 1 0.16500 119244.000000
5534 12894 1 0.16500 119244.000000
5534 13150 1 0.16500 119244.000000
5535 12895 1 0.16500 119244.000000
5535 13726 1 0.16500 119244.000000
5536 12895 1 0.16500 119244.000000
5536 16148 1 0.16500 119244.000000
5537 12896 1 0.16500 119244.000000
5537 16389 1 0.16500 119244.000000
5538 12896 1 0.16500 119244.000000
5538 13285 1 0.16500 119244.000000
5539 12896 1 0.16500 119244.000000
5539 15421 1 0.16500 119244.000000
5540 12897 1 0.16500 119244.000000
5540 22353 1 0.16500 119244.000000
5541 12897 1 0.16500 119244.000000
5541 14060 1 0.16500 119244.000000
5542 12898 1 0.16500 119244.000000
5542 18350 1 0.16500 119244.000000
5543 12898 1 0.16500 119244.000000
5543 15256 1 0.16500 119244.000000
5544 12899 1 0.16500 119244.000000
5544 16126 1 0.16500 119244.000000
5545 14117 1 0.16500 119244.000000
5545 15859 1 0.16500 119244.000000
5546 12899 1 0.16500 119244.000000
5546 14322 1 0.16500 119244.000000
5547 12899 1 0.16500 119244.000000
5547 15859 1 0.16500 119244.000000
5548 12900 1 0.16500 119244.000000
5548 15944 1 0.16500 119244.000000
5549 12900 1 0.16500 119244.000000
5549 14007 1 0.16500 119244.000000
5550 12230 1 0.16500 119244.000000
5550 15803 1 0.16500 119244.000000
5551 16235 1 0.16500 119244.000000
5551 20370 1 0.16500 119244.000000
5552 13978 1 0.16500 119244.000000
5552 20370 1 0.16500 119244.000000
5553 12901 1 0.16500 119244.000000
5553 15933 1 0.16500 119244.000000
5554 12901 1 0.16500 119244.000000
5554 15300 1 0.16500 119244.000000
5555 12901 1 0.16500 119244.000000
5555 14279 1 0.16500 119244.000000
5556 12901 1 0.16500 119244.000000
5556 13109 1 0.16500 119244.000000
5557 12902 1 0.16500 119244.000000
5557 15285 1 0.16500 119244.000000
5558 12902 1 0.16500 119244.000000
5558 14527 1 0.16500 119244.000000
5559 12902 1 0.16500 119244.000000
5559 14288 1 0.16500 119244.000000
5560 12903 1 0.16500 119244.000000
5560 16222 1 0.16500 119244.000000
5561 12903 1 0.16500 119244.000000
5561 16614 1 0.16500 119244.000000
5562 12904 1 0.16500 119244.000000
5562 14350 1 0.16500 119244.000000
5563 12904 1 0.16500 119244.000000
5563 14742 1 0.16500 119244.000000
5564 12904 1 0.16500 119244.000000
5564 14325 1 0.16500 119244.000000
5565 12905 1 0.16500 119244.000000
5565 15614 1 0.16500 119244.000000
5566 12905 1 0.16500 119244.000000
5566 18252 1 0.16500 119244.000000
5567 12905 1 0.16500 119244.000000
5567 15844 1 0.16500 119244.000000
5568 12906 1 0.16500 119244.000000
5568 14067 1 0.16500 119244.000000
5569 12906 1 0.16500 119244.000000
5569 14493 1 0.16500 119244.000000
5570 12906 1 0.16500 119244.000000
5570 12920 1 0.16500 119244.000000
5571 12907 1 0.16500 119244.000000
5571 13591 1 0.16500 119244.000000
5572 14155 1 0.16500 119244.000000
5572 20394 1 0.16500 119244.000000
5573 16040 1 0.16500 119244.000000
5573 20394 1 0.16500 119244.000000
5574 12908 1 0.16500 119244.000000
5574 15875 1 0.16500 119244.000000
5575 12908 1 0.16500 119244.000000
5575 13686 1 0.16500 119244.000000
5576 12908 1 0.16500 119244.000000
5576 16111 1 0.16500 119244.000000
5577 12073 1 0.16500 119244.000000
5577 15509 1 0.16500 119244.000000
5578 15509 1 0.16500 119244.000000
5578 20406 1 0.16500 119244.000000
5579 13505 1 0.16500 119244.000000
5579 20418 1 0.16500 119244.000000
5580 16119 1 0.16500 119244.000000
5580 17496 1 0.16500 119244.000000
5581 17496 1 0.16500 119244.000000
5581 20418 1 0.16500 119244.000000
5582 12909 1 0.16500 119244.000000
5582 21210 1 0.16500 119244.000000
5583 12909 1 0.16500 119244.000000
5583 15519 1 0.16500 119244.000000
5584 12909 1 0.16500 119244.000000
5584 14371 1 0.16500 119244.000000
5585 12910 1 0.16500 119244.000000
5585 15827 1 0.16500 119244.000000
5586 12910 1 0.16500 119244.000000
5586 13546 1 0.16500 119244.000000
5587 12911 1 0.16500 119244.000000
5587 14075 1 0.16500 119244.000000
5588 12911 1 0.16500 119244.000000
5588 15038 1 0.16500 119244.000000
5589 12911 1 0.16500 119244.000000
5589 13427 1 0.16500 119244.000000
5590 12911 1 0.16500 119244.000000
5590 16473 1 0.16500 119244.000000
5591 12912 1 0.16500 119244.000000
5591 16519 1 0.16500 119244.000000
5592 12912 1 0.16500 119244.000000
5592 22008 1 0.16500 119244.000000
5593 12912 1 0.16500 119244.000000
5593 13791 1 0.16500 119244.000000
5594 12913 1 0.16500 119244.000000
5594 14454 1 0.16500 119244.000000
5595 12913 1 0.16500 119244.000000
5595 13065 1 0.16500 119244.000000
5596 12913 1 0.16500 119244.000000
5596 15503 1 0.16500 119244.000000
5597 12913 1 0.16500 119244.000000
5597 16020 1 0.16500 119244.000000
5598 12914 1 0.16500 119244.000000
5598 15557 1 0.16500 119244.000000
5599 12914 1 0.16500 119244.000000
5599 12986 1 0.16500 119244.000000
5600 12915 1 0.16500 119244.000000
5600 15644 1 0.16500 119244.000000
5601 12915 1 0.16500 119244.000000
5601 13664 1 0.16500 119244.000000
5602 12916 1 0.16500 119244.000000
5602 14305 1 0.16500 119244.000000
5603 12916 1 0.16500 119244.000000
5603 14447 1 0.16500 119244.000000
5604 12916 1 0.16500 119244.000000
5604 13757 1 0.16500 119244.000000
5605 12917 1 0.16500 119244.000000
5605 14348 1 0.16500 119244.000000
5606 12917 1 0.16500 119244.000000
5606 14665 1 0.16500 119244.000000
5607 12917 1 0.16500 119244.000000
5607 14168 1 0.16500 119244.000000
5608 12917 1 0.16500 119244.000000
5608 13493 1 0.16500 119244.000000
5609 12918 1 0.16500 119244.000000
5609 14218 1 0.16500 119244.000000
5610 12918 1 0.16500 119244.000000
5610 15016 1 0.16500 119244.000000
5611 12918 1 0.16500 119244.000000
5611 16481 1 0.16500 119244.000000
5612 12919 1 0.16500 119244.000000
5612 15447 1 0.16500 119244.000000
5613 12919 1 0.16500 119244.000000
5613 15303 1 0.16500 119244.000000
5614 12919 1 0.16500 119244.000000
5614 16158 1 0.16500 119244.000000
5615 12920 1 0.16500 119244.000000
5615 14180 1 0.16500 119244.000000
5616 12920 1 0.16500 119244.000000
5616 15558 1 0.16500 119244.000000
5617 12920 1 0.16500 119244.000000
5617 15015 1 0.16500 119244.000000
5618 12921 1 0.16500 119244.000000
5618 15639 1 0.16500 119244.000000
5619 12921 1 0.16500 119244.000000
5619 14336 1 0.16500 119244.000000
5620 12921 1 0.16500 119244.000000
5620 14087 1 0.16500 119244.000000
5621 12921 1 0.16500 119244.000000
5621 13640 1 0.16500 119244.000000
5622 12922 1 0.16500 119244.000000
5622 15108 1 0.16500 119244.000000
5623 12922 1 0.16500 119244.000000
5623 16390 1 0.16500 119244.000000
5624 12922 1 0.16500 119244.000000
5624 14266 1 0.16500 119244.000000
5625 12922 1 0.16500 119244.000000
5625 14336 1 0.16500 119244.000000
5626 12923 1 0.16500 119244.000000
5626 16177 1 0.16500 119244.000000
5627 12924 1 0.16500 119244.000000
5627 15914 1 0.16500 119244.000000
5628 12924 1 0.16500 119244.000000
5628 14540 1 0.16500 119244.000000
5629 12925 1 0.16500 119244.000000
5629 14207 1 0.16500 119244.000000
5630 13754 1 0.16500 119244.000000
5630 20430 1 0.16500 119244.000000
5631 12926 1 0.16500 119244.000000
5631 14174 1 0.16500 119244.000000
5632 15184 1 0.16500 119244.000000
5632 15984 1 0.16500 119244.000000
5633 12926 1 0.16500 119244.000000
5633 15984 1 0.16500 119244.000000
5634 12926 1 0.16500 119244.000000
5634 13461 1 0.16500 119244.000000
5635 12927 1 0.16500 119244.000000
5635 16047 1 0.16500 119244.000000
5636 12927 1 0.16500 119244.000000
5636 15951 1 0.16500 119244.000000
5637 12927 1 0.16500 119244.000000
5637 12993 1 0.16500 119244.000000
5638 12927 1 0.16500 119244.000000
5638 13605 1 0.16500 119244.000000
5639 12928 1 0.16500 119244.000000
5639 15237 1 0.16500 119244.000000
5640 12928 1 0.16500 119244.000000
5640 13260 1 0.16500 119244.000000
5641 12928 1 0.16500 119244.000000
5641 15453 1 0.16500 119244.000000
5642 12929 1 0.16500 119244.000000
5642 14733 1 0.16500 119244.000000
5643 12929 1 0.16500 119244.000000
5643 16240 1 0.16500 119244.000000
5644 12929 1 0.16500 119244.000000
5644 13656 1 0.16500 119244.000000
5645 12929 1 0.16500 119244.000000
5645 14607 1 0.16500 119244.000000
5646 12930 1 0.16500 119244.000000
5646 13633 1 0.16500 119244.000000
5647 12930 1 0.16500 119244.000000
5647 15358 1 0.16500 119244.000000
5648 12930 1 0.16500 119244.000000
5648 14665 1 0.16500 119244.000000
5649 12931 1 0.16500 119244.000000
5649 16419 1 0.16500 119244.000000
5650 12931 1 0.16500 119244.000000
5650 14151 1 0.16500 119244.000000
5651 12931 1 0.16500 119244.000000
5651 15121 1 0.16500 119244.000000
5652 12931 1 0.16500 119244.000000
5652 16442 1 0.16500 119244.000000
5653 13957 1 0.16500 119244.000000
5653 14842 1 0.16500 119244.000000
5654 12932 1 0.16500 119244.000000
5654 13957 1 0.16500 119244.000000
5655 12932 1 0.16500 119244.000000
5655 14347 1 0.16500 119244.000000
5656 12933 1 0.16500 119244.000000
5656 13658 1 0.16500 119244.000000
5657 12933 1 0.16500 119244.000000
5657 13866 1 0.16500 119244.000000
5658 12933 1 0.16500 119244.000000
5658 15306 1 0.16500 119244.000000
5659 12933 1 0.16500 119244.000000
5659 15834 1 0.16500 119244.000000
5660 12149 1 0.16500 119244.000000
5660 15681 1 0.16500 119244.000000
5661 12934 1 0.16500 119244.000000
5661 13168 1 0.16500 119244.000000
5662 12934 1 0.16500 119244.000000
5662 15473 1 0.16500 119244.000000
5663 12934 1 0.16500 119244.000000
5663 14022 1 0.16500 119244.000000
5664 12935 1 0.16500 119244.000000
5664 13862 1 0.16500 119244.000000
5665 12935 1 0.16500 119244.000000
5665 13088 1 0.16500 119244.000000
5666 12935 1 0.16500 119244.000000
5666 13379 1 0.16500 119244.000000
5667 12936 1 0.16500 119244.000000
5667 14853 1 0.16500 119244.000000
5668 12936 1 0.16500 119244.000000
5668 16389 1 0.16500 119244.000000
5669 12936 1 0.16500 119244.000000
5669 14398 1 0.16500 119244.000000
5670 12937 1 0.16500 119244.000000
5670 14180 1 0.16500 119244.000000
5671 12937 1 0.16500 119244.000000
5671 22227 1 0.16500 119244.000000
5672 12937 1 0.16500 119244.000000
5672 13094 1 0.16500 119244.000000
5673 12937 1 0.16500 119244.000000
5673 22143 1 0.16500 119244.000000
5674 12938 1 0.16500 119244.000000
5674 14174 1 0.16500 119244.000000
5675 12938 1 0.16500 119244.000000
5675 13145 1 0.16500 119244.000000
5676 12938 1 0.16500 119244.000000
5676 13473 1 0.16500 119244.000000
5677 12938 1 0.16500 119244.000000
5677 12972 1 0.16500 119244.000000
5678 12939 1 0.16500 119244.000000
5678 15281 1 0.16500 119244.000000
5679 12939 1 0.16500 119244.000000
5679 13658 1 0.16500 119244.000000
5680 12939 1 0.16500 119244.000000
5680 16114 1 0.16500 119244.000000
5681 12940 1 0.16500 119244.000000
5681 16341 1 0.16500 119244.000000
5682 12940 1 0.16500 119244.000000
5682 14509 1 0.16500 119244.000000
5683 12941 1 0.16500 119244.000000
5683 14744 1 0.16500 119244.000000
5684 12941 1 0.16500 119244.000000
5684 14382 1 0.16500 119244.000000
5685 12941 1 0.16500 119244.000000
5685 15469 1 0.16500 119244.000000
5686 12942 1 0.16500 119244.000000
5686 15716 1 0.16500 119244.000000
5687 12942 1 0.16500 119244.000000
5687 14400 1 0.16500 119244.000000
5688 12942 1 0.16500 119244.000000
5688 13976 1 0.16500 119244.000000
5689 12943 1 0.16500 119244.000000
5689 14465 1 0.16500 119244.000000
5690 12943 1 0.16500 119244.000000
5690 14779 1 0.16500 119244.000000
5691 12944 1 0.16500 119244.000000
5691 16159 1 0.16500 119244.000000
5692 12944 1 0.16500 119244.000000
5692 13828 1 0.16500 119244.000000
5693 12944 1 0.16500 119244.000000
5693 14834 1 0.16500 119244.000000
5694 11863 1 0.16500 119244.000000
5694 13290 1 0.16500 119244.000000
5695 13290 1 0.16500 119244.000000
5695 15996 1 0.16500 119244.000000
5696 12946 1 0.16500 119244.000000
5696 15205 1 0.16500 119244.000000
5697 12946 1 0.16500 119244.000000
5697 15201 1 0.16500 119244.000000
5698 12946 1 0.16500 119244.000000
5698 15751 1 0.16500 119244.000000
5699 12946 1 0.16500 119244.000000
5699 15993 1 0.16500 119244.000000
5700 12947 1 0.16500 119244.000000
5700 13163 1 0.16500 119244.000000
5701 12947 1 0.16500 119244.000000
5701 16153 1 0.16500 119244.000000
5702 12947 1 0.16500 119244.000000
5702 16028 1 0.16500 119244.000000
5703 12948 1 0.16500 119244.000000
5703 15158 1 0.16500 119244.000000
5704 12948 1 0.16500 119244.000000
5704 13206 1 0.16500 119244.000000
5705 12948 1 0.16500 119244.000000
5705 15807 1 0.16500 119244.000000
5706 12991 1 0.16500 119244.000000
5706 13905 1 0.16500 119244.000000
5707 12949 1 0.16500 119244.000000
5707 14704 1 0.16500 119244.000000
5708 12949 1 0.16500 119244.000000
5708 12991 1 0.16500 119244.000000
5709 12950 1 0.16500 119244.000000
5709 17664 1 0.16500 119244.000000
5710 12950 1 0.16500 119244.000000
5710 13401 1 0.16500 119244.000000
5711 12951 1 0.16500 119244.000000
5711 13672 1 0.16500 119244.000000
5712 12951 1 0.16500 119244.000000
5712 13690 1 0.16500 119244.000000
5713 14370 1 0.16500 119244.000000
5713 20442 1 0.16500 119244.000000
5714 20442 1 0.16500 119244.000000
5714 21222 1 0.16500 119244.000000
5715 14484 1 0.16500 119244.000000
5715 20454 1 0.16500 119244.000000
5716 13370 1 0.16500 119244.000000
5716 20454 1 0.16500 119244.000000
5717 13911 1 0.16500 119244.000000
5717 20454 1 0.16500 119244.000000
5718 12952 1 0.16500 119244.000000
5718 14873 1 0.16500 119244.000000
5719 12952 1 0.16500 119244.000000
5719 13898 1 0.16500 119244.000000
5720 12952 1 0.16500 119244.000000
5720 16201 1 0.16500 119244.000000
5721 12952 1 0.16500 119244.000000
5721 16221 1 0.16500 119244.000000
5722 12953 1 0.16500 119244.000000
5722 14761 1 0.16500 119244.000000
5723 12953 1 0.16500 119244.000000
5723 14593 1 0.16500 119244.000000
5724 12953 1 0.16500 119244.000000
5724 15421 1 0.16500 119244.000000
5725 15983 1 0.16500 119244.000000
5725 20466 1 0.16500 119244.000000
5726 13933 1 0.16500 119244.000000
5726 20466 1 0.16500 119244.000000
5727 20466 1 0.16500 119244.000000
5727 21609 1 0.16500 119244.000000
5728 12954 1 0.16500 119244.000000
5728 14676 1 0.16500 119244.000000
5729 12954 1 0.16500 119244.000000
5729 14019 1 0.16500 119244.000000
5730 12954 1 0.16500 119244.000000
5730 15028 1 0.16500 119244.000000
5731 12955 1 0.16500 119244.000000
5731 15056 1 0.16500 119244.000000
5732 12955 1 0.16500 119244.000000
5732 14227 1 0.16500 119244.000000
5733 12956 1 0.16500 119244.000000
5733 13242 1 0.16500 119244.000000
5734 12956 1 0.16500 119244.000000
5734 13292 1 0.16500 119244.000000
5735 12957 1 0.16500 119244.000000
5735 22137 1 0.16500 119244.000000
5736 12957 1 0.16500 119244.000000
5736 13511 1 0.16500 119244.000000
5737 16142 1 0.16500 119244.000000
5737 20478 1 0.16500 119244.000000
5738 12958 1 0.16500 119244.000000
5738 15744 1 0.16500 119244.000000
5739 12958 1 0.16500 119244.000000
5739 13360 1 0.16500 119244.000000
5740 12958 1 0.16500 119244.000000
5740 15535 1 0.16500 119244.000000
5741 12958 1 0.16500 119244.000000
5741 14882 1 0.16500 119244.000000
5742 12959 1 0.16500 119244.000000
5742 16057 1 0.16500 119244.000000
5743 12959 1 0.16500 119244.000000
5743 13025 1 0.16500 119244.000000
5744 14959 1 0.16500 119244.000000
5744 16057 1 0.16500 119244.000000
5745 12785 1 0.16500 119244.000000
5745 12960 1 0.16500 119244.000000
5746 12960 1 0.16500 119244.000000
5746 14232 1 0.16500 119244.000000
5747 12961 1 0.16500 119244.000000
5747 15219 1 0.16500 119244.000000
5748 12961 1 0.16500 119244.000000
5748 14394 1 0.16500 119244.000000
5749 12962 1 0.16500 119244.000000
5749 14568 1 0.16500 119244.000000
5750 12962 1 0.16500 119244.000000
5750 13972 1 0.16500 119244.000000
5751 13984 1 0.16500 119244.000000
5751 20490 1 0.16500 119244.000000
5752 14059 1 0.16500 119244.000000
5752 20490 1 0.16500 119244.000000
5753 12963 1 0.16500 119244.000000
5753 13588 1 0.16500 119244.000000
5754 12963 1 0.16500 119244.000000
5754 13223 1 0.16500 119244.000000
5755 12963 1 0.16500 119244.000000
5755 16004 1 0.16500 119244.000000
5756 12964 1 0.16500 119244.000000
5756 14517 1 0.16500 119244.000000
5757 12964 1 0.16500 119244.000000
5757 14409 1 0.16500 119244.000000
5758 12964 1 0.16500 119244.000000
5758 14054 1 0.16500 119244.000000
5759 12965 1 0.16500 119244.000000
5759 14693 1 0.16500 119244.000000
5760 14693 1 0.16500 119244.000000
5760 16362 1 0.16500 119244.000000
5761 12966 1 0.16500 119244.000000
5761 14926 1 0.16500 119244.000000
5762 12966 1 0.16500 119244.000000
5762 20958 1 0.16500 119244.000000
5763 12966 1 0.16500 119244.000000
5763 22071 1 0.16500 119244.000000
5764 14621 1 0.16500 119244.000000
5764 14926 1 0.16500 119244.000000
5765 12967 1 0.16500 119244.000000
5765 13297 1 0.16500 119244.000000
5766 12967 1 0.16500 119244.000000
5766 15942 1 0.16500 119244.000000
5767 12968 1 0.16500 119244.000000
5767 15659 1 0.16500 119244.000000
5768 12968 1 0.16500 119244.000000
5768 14433 1 0.16500 119244.000000
5769 12968 1 0.16500 119244.000000
5769 15420 1 0.16500 119244.000000
5770 12968 1 0.16500 119244.000000
5770 13972 1 0.16500 119244.000000
5771 12969 1 0.16500 119244.000000
5771 14807 1 0.16500 119244.000000
5772 12970 1 0.16500 119244.000000
5772 15866 1 0.16500 119244.000000
5773 12970 1 0.16500 119244.000000
5773 15130 1 0.16500 119244.000000
5774 13728 1 0.16500 119244.000000
5774 20502 1 0.16500 119244.000000
5775 13619 1 0.16500 119244.000000
5775 20502 1 0.16500 119244.000000
5776 16334 1 0.16500 119244.000000
5776 20502 1 0.16500 119244.000000
5777 12971 1 0.16500 119244.000000
5777 12989 1 0.16500 119244.000000
5778 12971 1 0.16500 119244.000000
5778 13498 1 0.16500 119244.000000
5779 12971 1 0.16500 119244.000000
5779 14867 1 0.16500 119244.000000
5780 12972 1 0.16500 119244.000000
5780 13736 1 0.16500 119244.000000
5781 12972 1 0.16500 119244.000000
5781 14111 1 0.16500 119244.000000
5782 12972 1 0.16500 119244.000000
5782 13609 1 0.16500 119244.000000
5783 12973 1 0.16500 119244.000000
5783 14952 1 0.16500 119244.000000
5784 12973 1 0.16500 119244.000000
5784 13211 1 0.16500 119244.000000
5785 12973 1 0.16500 119244.000000
5785 15085 1 0.16500 119244.000000
5786 12974 1 0.16500 119244.000000
5786 15791 1 0.16500 119244.000000
5787 12975 1 0.16500 119244.000000
5787 13632 1 0.16500 119244.000000
5788 12975 1 0.16500 119244.000000
5788 15515 1 0.16500 119244.000000
5789 12975 1 0.16500 119244.000000
5789 13989 1 0.16500 119244.000000
5790 12975 1 0.16500 119244.000000
5790 16079 1 0.16500 119244.000000
5791 15259 1 0.16500 119244.000000
5791 15506 1 0.16500 119244.000000
5792 12976 1 0.16500 119244.000000
5792 15259 1 0.16500 119244.000000
5793 12976 1 0.16500 119244.000000
5793 15023 1 0.16500 119244.000000
5794 13293 1 0.16500 119244.000000
5794 13947 1 0.16500 119244.000000
5795 12977 1 0.16500 119244.000000
5795 14317 1 0.16500 119244.000000
5796 12977 1 0.16500 119244.000000
5796 14093 1 0.16500 119244.000000
5797 12977 1 0.16500 119244.000000
5797 13947 1 0.16500 119244.000000
5798 12978 1 0.16500 119244.000000
5798 13678 1 0.16500 119244.000000
5799 11432 1 0.16500 119244.000000
5799 12978 1 0.16500 119244.000000
5800 12978 1 0.16500 119244.000000
5800 14267 1 0.16500 119244.000000
5801 12978 1 0.16500 119244.000000
5801 13888 1 0.16500 119244.000000
5802 12979 1 0.16500 119244.000000
5802 13386 1 0.16500 119244.000000
5803 12980 1 0.16500 119244.000000
5803 15364 1 0.16500 119244.000000
5804 12980 1 0.16500 119244.000000
5804 15270 1 0.16500 119244.000000
5805 12980 1 0.16500 119244.000000
5805 16047 1 0.16500 119244.000000
5806 12981 1 0.16500 119244.000000
5806 15515 1 0.16500 119244.000000
5807 12981 1 0.16500 119244.000000
5807 15248 1 0.16500 119244.000000
5808 12981 1 0.16500 119244.000000
5808 14886 1 0.16500 119244.000000
5809 12981 1 0.16500 119244.000000
5809 15453 1 0.16500 119244.000000
5810 12982 1 0.16500 119244.000000
5810 15627 1 0.16500 119244.000000
5811 12982 1 0.16500 119244.000000
5811 14916 1 0.16500 119244.000000
5812 12983 1 0.16500 119244.000000
5812 13131 1 0.16500 119244.000000
5813 12983 1 0.16500 119244.000000
5813 14189 1 0.16500 119244.000000
5814 12983 1 0.16500 119244.000000
5814 13036 1 0.16500 119244.000000
5815 12984 1 0.16500 119244.000000
5815 16362 1 0.16500 119244.000000
5816 12984 1 0.16500 119244.000000
5816 15909 1 0.16500 119244.000000
5817 12984 1 0.16500 119244.000000
5817 13560 1 0.16500 119244.000000
5818 12985 1 0.16500 119244.000000
5818 16050 1 0.16500 119244.000000
5819 12985 1 0.16500 119244.000000
5819 16296 1 0.16500 119244.000000
5820 12914 1 0.16500 119244.000000
5820 13789 1 0.16500 119244.000000
5821 12986 1 0.16500 119244.000000
5821 14180 1 0.16500 119244.000000
5822 12987 1 0.16500 119244.000000
5822 14532 1 0.16500 119244.000000
5823 12987 1 0.16500 119244.000000
5823 16220 1 0.16500 119244.000000
5824 13328 1 0.16500 119244.000000
5824 15301 1 0.16500 119244.000000
5825 12988 1 0.16500 119244.000000
5825 15301 1 0.16500 119244.000000
5826 12988 1 0.16500 119244.000000
5826 15270 1 0.16500 119244.000000
5827 12988 1 0.16500 119244.000000
5827 13962 1 0.16500 119244.000000
5828 14246 1 0.16500 119244.000000
5828 14293 1 0.16500 119244.000000
5829 14293 1 0.16500 119244.000000
5829 20514 1 0.16500 119244.000000
5830 13222 1 0.16500 119244.000000
5830 20526 1 0.16500 119244.000000
5831 12989 1 0.16500 119244.000000
5831 15133 1 0.16500 119244.000000
5832 15257 1 0.16500 119244.000000
5832 20538 1 0.16500 119244.000000
5833 14280 1 0.16500 119244.000000
5833 20538 1 0.16500 119244.000000
5834 20538 1 0.16500 119244.000000
5834 21531 1 0.16500 119244.000000
5835 12990 1 0.16500 119244.000000
5835 14089 1 0.16500 119244.000000
5836 12990 1 0.16500 119244.000000
5836 14662 1 0.16500 119244.000000
5837 14416 1 0.16500 119244.000000
5837 14662 1 0.16500 119244.000000
5838 14300 1 0.16500 119244.000000
5838 14662 1 0.16500 119244.000000
5839 16316 1 0.16500 119244.000000
5839 20550 1 0.16500 119244.000000
5840 14737 1 0.16500 119244.000000
5840 16316 1 0.16500 119244.000000
5841 16316 1 0.16500 119244.000000
5841 22311 1 0.16500 119244.000000
5842 16183 1 0.16500 119244.000000
5842 16316 1 0.16500 119244.000000
5843 12991 1 0.16500 119244.000000
5843 15012 1 0.16500 119244.000000
5844 12949 1 0.16500 119244.000000
5844 16351 1 0.16500 119244.000000
5845 12992 1 0.16500 119244.000000
5845 21537 1 0.16500 119244.000000
5846 12992 1 0.16500 119244.000000
5846 21030 1 0.16500 119244.000000
5847 12993 1 0.16500 119244.000000
5847 13858 1 0.16500 119244.000000
5848 12993 1 0.16500 119244.000000
5848 16782 1 0.16500 119244.000000
5849 12993 1 0.16500 119244.000000
5849 14908 1 0.16500 119244.000000
5850 12994 1 0.16500 119244.000000
5850 15930 1 0.16500 119244.000000
5851 12994 1 0.16500 119244.000000
5851 14258 1 0.16500 119244.000000
5852 12994 1 0.16500 119244.000000
5852 14929 1 0.16500 119244.000000
5853 12995 1 0.16500 119244.000000
5853 16122 1 0.16500 119244.000000
5854 12996 1 0.16500 119244.000000
5854 13921 1 0.16500 119244.000000
5855 12996 1 0.16500 119244.000000
5855 13924 1 0.16500 119244.000000
5856 12996 1 0.16500 119244.000000
5856 22041 1 0.16500 119244.000000
5857 12996 1 0.16500 119244.000000
5857 15695 1 0.16500 119244.000000
5858 12733 1 0.16500 119244.000000
5858 12997 1 0.16500 119244.000000
5859 12997 1 0.16500 119244.000000
5859 13439 1 0.16500 119244.000000
5860 15545 1 0.16500 119244.000000
5860 20562 1 0.16500 119244.000000
5861 15142 1 0.16500 119244.000000
5861 15545 1 0.16500 119244.000000
5862 12998 1 0.16500 119244.000000
5862 15846 1 0.16500 119244.000000
5863 14271 1 0.16500 119244.000000
5863 15083 1 0.16500 119244.000000
5864 12998 1 0.16500 119244.000000
5864 15083 1 0.16500 119244.000000
5865 12999 1 0.16500 119244.000000
5865 15347 1 0.16500 119244.000000
5866 12999 1 0.16500 119244.000000
5866 21354 1 0.16500 119244.000000
5867 12999 1 0.16500 119244.000000
5867 16016 1 0.16500 119244.000000
5868 13000 1 0.16500 119244.000000
5868 14519 1 0.16500 119244.000000
5869 13000 1 0.16500 119244.000000
5869 16290 1 0.16500 119244.000000
5870 13001 1 0.16500 119244.000000
5870 15197 1 0.16500 119244.000000
5871 13001 1 0.16500 119244.000000
5871 13754 1 0.16500 119244.000000
5872 13001 1 0.16500 119244.000000
5872 15706 1 0.16500 119244.000000
5873 13002 1 0.16500 119244.000000
5873 13135 1 0.16500 119244.000000
5874 13002 1 0.16500 119244.000000
5874 15171 1 0.16500 119244.000000
5875 13002 1 0.16500 119244.000000
5875 13606 1 0.16500 119244.000000
5876 13003 1 0.16500 119244.000000
5876 13437 1 0.16500 119244.000000
5877 13003 1 0.16500 119244.000000
5877 13876 1 0.16500 119244.000000
5878 13003 1 0.16500 119244.000000
5878 13373 1 0.16500 119244.000000
5879 11606 1 0.16500 119244.000000
5879 13003 1 0.16500 119244.000000
5880 13004 1 0.16500 119244.000000
5880 13839 1 0.16500 119244.000000
5881 13004 1 0.16500 119244.000000
5881 13724 1 0.16500 119244.000000
5882 13004 1 0.16500 119244.000000
5882 13810 1 0.16500 119244.000000
5883 13004 1 0.16500 119244.000000
5883 15468 1 0.16500 119244.000000
5884 13005 1 0.16500 119244.000000
5884 14977 1 0.16500 119244.000000
5885 13005 1 0.16500 119244.000000
5885 13470 1 0.16500 119244.000000
5886 13005 1 0.16500 119244.000000
5886 15928 1 0.16500 119244.000000
5887 13006 1 0.16500 119244.000000
5887 16523 1 0.16500 119244.000000
5888 13006 1 0.16500 119244.000000
5888 15419 1 0.16500 119244.000000
5889 13007 1 0.16500 119244.000000
5889 13475 1 0.16500 119244.000000
5890 13007 1 0.16500 119244.000000
5890 14236 1 0.16500 119244.000000
5891 13007 1 0.16500 119244.000000
5891 15063 1 0.16500 119244.000000
5892 13440 1 0.16500 119244.000000
5892 20574 1 0.16500 119244.000000
5893 12450 1 0.16500 119244.000000
5893 20574 1 0.16500 119244.000000
5894 14904 1 0.16500 119244.000000
5894 20574 1 0.16500 119244.000000
5895 13008 1 0.16500 119244.000000
5895 14507 1 0.16500 119244.000000
5896 13008 1 0.16500 119244.000000
5896 15564 1 0.16500 119244.000000
5897 13008 1 0.16500 119244.000000
5897 14650 1 0.16500 119244.000000
5898 13009 1 0.16500 119244.000000
5898 16061 1 0.16500 119244.000000
5899 13009 1 0.16500 119244.000000
5899 15571 1 0.16500 119244.000000
5900 13009 1 0.16500 119244.000000
5900 14875 1 0.16500 119244.000000
5901 13010 1 0.16500 119244.000000
5901 14314 1 0.16500 119244.000000
5902 13010 1 0.16500 119244.000000
5902 13228 1 0.16500 119244.000000
5903 13010 1 0.16500 119244.000000
5903 13760 1 0.16500 119244.000000
5904 13011 1 0.16500 119244.000000
5904 13494 1 0.16500 119244.000000
5905 13011 1 0.16500 119244.000000
5905 14688 1 0.16500 119244.000000
5906 13011 1 0.16500 119244.000000
5906 16135 1 0.16500 119244.000000
5907 13011 1 0.16500 119244.000000
5907 13617 1 0.16500 119244.000000
5908 13012 1 0.16500 119244.000000
5908 15574 1 0.16500 119244.000000
5909 12173 1 0.16500 119244.000000
5909 13012 1 0.16500 119244.000000
5910 13012 1 0.16500 119244.000000
5910 13271 1 0.16500 119244.000000
5911 13013 1 0.16500 119244.000000
5911 14382 1 0.16500 119244.000000
5912 13013 1 0.16500 119244.000000
5912 13546 1 0.16500 119244.000000
5913 13013 1 0.16500 119244.000000
5913 15100 1 0.16500 119244.000000
5914 13014 1 0.16500 119244.000000
5914 15092 1 0.16500 119244.000000
5915 13014 1 0.16500 119244.000000
5915 15195 1 0.16500 119244.000000
5916 13014 1 0.16500 119244.000000
5916 13300 1 0.16500 119244.000000
5917 13015 1 0.16500 119244.000000
5917 13314 1 0.16500 119244.000000
5918 13015 1 0.16500 119244.000000
5918 13701 1 0.16500 119244.000000
5919 16274 1 0.16500 119244.000000
5919 20586 1 0.16500 119244.000000
5920 11561 1 0.16500 119244.000000
5920 13016 1 0.16500 119244.000000
5921 13016 1 0.16500 119244.000000
5921 15301 1 0.16500 119244.000000
5922 13016 1 0.16500 119244.000000
5922 13357 1 0.16500 119244.000000
5923 13017 1 0.16500 119244.000000
5923 15918 1 0.16500 119244.000000
5924 13017 1 0.16500 119244.000000
5924 15687 1 0.16500 119244.000000
5925 13017 1 0.16500 119244.000000
5925 13228 1 0.16500 119244.000000
5926 13018 1 0.16500 119244.000000
5926 14278 1 0.16500 119244.000000
5927 12261 1 0.16500 119244.000000
5927 13517 1 0.16500 119244.000000
5928 13019 1 0.16500 119244.000000
5928 16066 1 0.16500 119244.000000
5929 13019 1 0.16500 119244.000000
5929 15018 1 0.16500 119244.000000
5930 13020 1 0.16500 119244.000000
5930 13830 1 0.16500 119244.000000
5931 13020 1 0.16500 119244.000000
5931 16324 1 0.16500 119244.000000
5932 13020 1 0.16500 119244.000000
5932 14111 1 0.16500 119244.000000
5933 13020 1 0.16500 119244.000000
5933 14204 1 0.16500 119244.000000
5934 13021 1 0.16500 119244.000000
5934 13722 1 0.16500 119244.000000
5935 13022 1 0.16500 119244.000000
5935 14685 1 0.16500 119244.000000
5936 13022 1 0.16500 119244.000000
5936 14266 1 0.16500 119244.000000
5937 13023 1 0.16500 119244.000000
5937 14012 1 0.16500 119244.000000
5938 13023 1 0.16500 119244.000000
5938 13494 1 0.16500 119244.000000
5939 13024 1 0.16500 119244.000000
5939 14488 1 0.16500 119244.000000
5940 13024 1 0.16500 119244.000000
5940 13536 1 0.16500 119244.000000
5941 13024 1 0.16500 119244.000000
5941 14794 1 0.16500 119244.000000
5942 13024 1 0.16500 119244.000000
5942 14330 1 0.16500 119244.000000
5943 15793 1 0.16500 119244.000000
5943 16181 1 0.16500 119244.000000
5944 14016 1 0.16500 119244.000000
5944 15793 1 0.16500 119244.000000
5945 13025 1 0.16500 119244.000000
5945 15793 1 0.16500 119244.000000
5946 13026 1 0.16500 119244.000000
5946 15127 1 0.16500 119244.000000
5947 13026 1 0.16500 119244.000000
5947 15126 1 0.16500 119244.000000
5948 13026 1 0.16500 119244.000000
5948 13229 1 0.16500 119244.000000
5949 13027 1 0.16500 119244.000000
5949 16356 1 0.16500 119244.000000
5950 13027 1 0.16500 119244.000000
5950 13872 1 0.16500 119244.000000
5951 13027 1 0.16500 119244.000000
5951 13157 1 0.16500 119244.000000
5952 13027 1 0.16500 119244.000000
5952 13517 1 0.16500 119244.000000
5953 13028 1 0.16500 119244.000000
5953 13951 1 0.16500 119244.000000
5954 13028 1 0.16500 119244.000000
5954 15464 1 0.16500 119244.000000
5955 12793 1 0.16500 119244.000000
5955 13028 1 0.16500 119244.000000
5956 13028 1 0.16500 119244.000000
5956 16090 1 0.16500 119244.000000
5957 13029 1 0.16500 119244.000000
5957 14198 1 0.16500 119244.000000
5958 13029 1 0.16500 119244.000000
5958 13737 1 0.16500 119244.000000
5959 13029 1 0.16500 119244.000000
5959 13498 1 0.16500 119244.000000
5960 13029 1 0.16500 119244.000000
5960 15303 1 0.16500 119244.000000
5961 13030 1 0.16500 119244.000000
5961 13465 1 0.16500 119244.000000
5962 13030 1 0.16500 119244.000000
5962 13671 1 0.16500 119244.000000
5963 15077 1 0.16500 119244.000000
5963 21759 1 0.16500 119244.000000
5964 13353 1 0.16500 119244.000000
5964 20598 1 0.16500 119244.000000
5965 20598 1 0.16500 119244.000000
5965 21759 1 0.16500 119244.000000
5966 13031 1 0.16500 119244.000000
5966 15443 1 0.16500 119244.000000
5967 13031 1 0.16500 119244.000000
5967 15238 1 0.16500 119244.000000
5968 13032 1 0.16500 119244.000000
5968 13967 1 0.16500 119244.000000
5969 13032 1 0.16500 119244.000000
5969 19938 1 0.16500 119244.000000
5970 13033 1 0.16500 119244.000000
5970 14249 1 0.16500 119244.000000
5971 13033 1 0.16500 119244.000000
5971 14235 1 0.16500 119244.000000
5972 13033 1 0.16500 119244.000000
5972 13542 1 0.16500 119244.000000
5973 13411 1 0.16500 119244.000000
5973 14249 1 0.16500 119244.000000
5974 16479 1 0.16500 119244.000000
5974 20610 1 0.16500 119244.000000
5975 20610 1 0.16500 119244.000000
5975 21306 1 0.16500 119244.000000
5976 13034 1 0.16500 119244.000000
5976 13671 1 0.16500 119244.000000
5977 13034 1 0.16500 119244.000000
5977 15259 1 0.16500 119244.000000
5978 13509 1 0.16500 119244.000000
5978 14225 1 0.16500 119244.000000
5979 20622 1 0.16500 119244.000000
5979 21882 1 0.16500 119244.000000
5980 13509 1 0.16500 119244.000000
5980 20622 1 0.16500 119244.000000
5981 13509 1 0.16500 119244.000000
5981 21873 1 0.16500 119244.000000
5982 13035 1 0.16500 119244.000000
5982 14003 1 0.16500 119244.000000
5983 13035 1 0.16500 119244.000000
5983 13212 1 0.16500 119244.000000
5984 13036 1 0.16500 119244.000000
5984 15516 1 0.16500 119244.000000
5985 13036 1 0.16500 119244.000000
5985 14131 1 0.16500 119244.000000
5986 13036 1 0.16500 119244.000000
5986 13301 1 0.16500 119244.000000
5987 13037 1 0.16500 119244.000000
5987 16342 1 0.16500 119244.000000
5988 13037 1 0.16500 119244.000000
5988 15511 1 0.16500 119244.000000
5989 13038 1 0.16500 119244.000000
5989 15942 1 0.16500 119244.000000
5990 13038 1 0.16500 119244.000000
5990 14638 1 0.16500 119244.000000
5991 15362 1 0.16500 119244.000000
5991 20634 1 0.16500 119244.000000
5992 13189 1 0.16500 119244.000000
5992 20634 1 0.16500 119244.000000
5993 13039 1 0.16500 119244.000000
5993 15214 1 0.16500 119244.000000
5994 13039 1 0.16500 119244.000000
5994 13552 1 0.16500 119244.000000
5995 13039 1 0.16500 119244.000000
5995 16276 1 0.16500 119244.000000
5996 13039 1 0.16500 119244.000000
5996 14887 1 0.16500 119244.000000
5997 20646 1 0.16500 119244.000000
5997 22464 1 0.16500 119244.000000
5998 20646 1 0.16500 119244.000000
5998 21645 1 0.16500 119244.000000
5999 13040 1 0.16500 119244.000000
5999 15773 1 0.16500 119244.000000
6000 20658 1 0.16500 119244.000000
6000 21957 1 0.16500 119244.000000
6001 16428 1 0.16500 119244.000000
6001 20658 1 0.16500 119244.000000
6002 13041 1 0.16500 119244.000000
6002 15321 1 0.16500 119244.000000
6003 13041 1 0.16500 119244.000000
6003 13763 1 0.16500 119244.000000
6004 13041 1 0.16500 119244.000000
6004 13070 1 0.16500 119244.000000
6005 16337 1 0.16500 119244.000000
6005 20670 1 0.16500 119244.000000
6006 15340 1 0.16500 119244.000000
6006 20670 1 0.16500 119244.000000
6007 13042 1 0.16500 119244.000000
6007 15470 1 0.16500 119244.000000
6008 13042 1 0.16500 119244.000000
6008 13136 1 0.16500 119244.000000
6009 13042 1 0.16500 119244.000000
6009 15453 1 0.16500 119244.000000
6010 13042 1 0.16500 119244.000000
6010 13732 1 0.16500 119244.000000
6011 13043 1 0.16500 119244.000000
6011 15492 1 0.16500 119244.000000
6012 13043 1 0.16500 119244.000000
6012 15908 1 0.16500 119244.000000
6013 13044 1 0.16500 119244.000000
6013 13113 1 0.16500 119244.000000
6014 13044 1 0.16500 119244.000000
6014 21843 1 0.16500 119244.000000
6015 13044 1 0.16500 119244.000000
6015 15098 1 0.16500 119244.000000
6016 13045 1 0.16500 119244.000000
6016 16429 1 0.16500 119244.000000
6017 13045 1 0.16500 119244.000000
6017 14642 1 0.16500 119244.000000
6018 13045 1 0.16500 119244.000000
6018 14947 1 0.16500 119244.000000
6019 13045 1 0.16500 119244.000000
6019 16260 1 0.16500 119244.000000
6020 11656 1 0.16500 119244.000000
6020 13347 1 0.16500 119244.000000
6021 11656 1 0.16500 119244.000000
6021 16213 1 0.16500 119244.000000
6022 13047 1 0.16500 119244.000000
6022 15386 1 0.16500 119244.000000
6023 13047 1 0.16500 119244.000000
6023 13702 1 0.16500 119244.000000
6024 13047 1 0.16500 119244.000000
6024 13719 1 0.16500 119244.000000
6025 13047 1 0.16500 119244.000000
6025 14798 1 0.16500 119244.000000
6026 20682 1 0.16500 119244.000000
6026 21006 1 0.16500 119244.000000
6027 15219 1 0.16500 119244.000000
6027 20682 1 0.16500 119244.000000
6028 13048 1 0.16500 119244.000000
6028 13694 1 0.16500 119244.000000
6029 13048 1 0.16500 119244.000000
6029 15190 1 0.16500 119244.000000
6030 13048 1 0.16500 119244.000000
6030 16062 1 0.16500 119244.000000
6031 16041 1 0.16500 119244.000000
6031 21462 1 0.16500 119244.000000
6032 16041 1 0.16500 119244.000000
6032 20694 1 0.16500 119244.000000
6033 13049 1 0.16500 119244.000000
6033 13642 1 0.16500 119244.000000
6034 13049 1 0.16500 119244.000000
6034 14452 1 0.16500 119244.000000
6035 13050 1 0.16500 119244.000000
6035 13564 1 0.16500 119244.000000
6036 13050 1 0.16500 119244.000000
6036 16492 1 0.16500 119244.000000
6037 13050 1 0.16500 119244.000000
6037 13831 1 0.16500 119244.000000
6038 20706 1 0.16500 119244.000000
6038 20826 1 0.16500 119244.000000
6039 13051 1 0.16500 119244.000000
6039 13969 1 0.16500 119244.000000
6040 13051 1 0.16500 119244.000000
6040 16129 1 0.16500 119244.000000
6041 13051 1 0.16500 119244.000000
6041 13614 1 0.16500 119244.000000
6042 13051 1 0.16500 119244.000000
6042 15624 1 0.16500 119244.000000
6043 13052 1 0.16500 119244.000000
6043 16230 1 0.16500 119244.000000
6044 13052 1 0.16500 119244.000000
6044 14407 1 0.16500 119244.000000
6045 13052 1 0.16500 119244.000000
6045 15711 1 0.16500 119244.000000
6046 13052 1 0.16500 119244.000000
6046 16169 1 0.16500 119244.000000
6047 13053 1 0.16500 119244.000000
6047 15812 1 0.16500 119244.000000
6048 13053 1 0.16500 119244.000000
6048 14161 1 0.16500 119244.000000
6049 13053 1 0.16500 119244.000000
6049 15439 1 0.16500 119244.000000
6050 13054 1 0.16500 119244.000000
6050 16436 1 0.16500 119244.000000
6051 13694 1 0.16500 119244.000000
6051 20718 1 0.16500 119244.000000
6052 13055 1 0.16500 119244.000000
6052 14875 1 0.16500 119244.000000
6053 13055 1 0.16500 119244.000000
6053 15544 1 0.16500 119244.000000
6054 13055 1 0.16500 119244.000000
6054 14736 1 0.16500 119244.000000
6055 13056 1 0.16500 119244.000000
6055 14910 1 0.16500 119244.000000
6056 13056 1 0.16500 119244.000000
6056 13874 1 0.16500 119244.000000
6057 13056 1 0.16500 119244.000000
6057 21549 1 0.16500 119244.000000
6058 13057 1 0.16500 119244.000000
6058 14772 1 0.16500 119244.000000
6059 13057 1 0.16500 119244.000000
6059 16116 1 0.16500 119244.000000
6060 13057 1 0.16500 119244.000000
6060 15947 1 0.16500 119244.000000
6061 13058 1 0.16500 119244.000000
6061 16376 1 0.16500 119244.000000
6062 13059 1 0.16500 119244.000000
6062 13211 1 0.16500 119244.000000
6063 13059 1 0.16500 119244.000000
6063 14764 1 0.16500 119244.000000
6064 13059 1 0.16500 119244.000000
6064 15839 1 0.16500 119244.000000
6065 13060 1 0.16500 119244.000000
6065 13423 1 0.16500 119244.000000
6066 13060 1 0.16500 119244.000000
6066 16431 1 0.16500 119244.000000
6067 13060 1 0.16500 119244.000000
6067 15475 1 0.16500 119244.000000
6068 13061 1 0.16500 119244.000000
6068 15830 1 0.16500 119244.000000
6069 13061 1 0.16500 119244.000000
6069 13563 1 0.16500 119244.000000
6070 13062 1 0.16500 119244.000000
6070 15614 1 0.16500 119244.000000
6071 13062 1 0.16500 119244.000000
6071 15062 1 0.16500 119244.000000
6072 13062 1 0.16500 119244.000000
6072 16308 1 0.16500 119244.000000
6073 13062 1 0.16500 119244.000000
6073 21750 1 0.16500 119244.000000
6074 13063 1 0.16500 119244.000000
6074 14277 1 0.16500 119244.000000
6075 13063 1 0.16500 119244.000000
6075 14271 1 0.16500 119244.000000
6076 13064 1 0.16500 119244.000000
6076 16499 1 0.16500 119244.000000
6077 13064 1 0.16500 119244.000000
6077 14801 1 0.16500 119244.000000
6078 13064 1 0.16500 119244.000000
6078 15971 1 0.16500 119244.000000
6079 13965 1 0.16500 119244.000000
6079 20742 1 0.16500 119244.000000
6080 15402 1 0.16500 119244.000000
6080 20742 1 0.16500 119244.000000
6081 13065 1 0.16500 119244.000000
6081 14746 1 0.16500 119244.000000
6082 13065 1 0.16500 119244.000000
6082 15165 1 0.16500 119244.000000
6083 13065 1 0.16500 119244.000000
6083 14438 1 0.16500 119244.000000
6084 13066 1 0.16500 119244.000000
6084 13736 1 0.16500 119244.000000
6085 13066 1 0.16500 119244.000000
6085 14445 1 0.16500 119244.000000
6086 13066 1 0.16500 119244.000000
6086 13461 1 0.16500 119244.000000
6087 13066 1 0.16500 119244.000000
6087 14770 1 0.16500 119244.000000
6088 16494 1 0.16500 119244.000000
6088 20754 1 0.16500 119244.000000
6089 20754 1 0.16500 119244.000000
6089 22020 1 0.16500 119244.000000
6090 13067 1 0.16500 119244.000000
6090 15293 1 0.16500 119244.000000
6091 13067 1 0.16500 119244.000000
6091 15970 1 0.16500 119244.000000
6092 13067 1 0.16500 119244.000000
6092 14174 1 0.16500 119244.000000
6093 13067 1 0.16500 119244.000000
6093 13912 1 0.16500 119244.000000
6094 13068 1 0.16500 119244.000000
6094 15094 1 0.16500 119244.000000
6095 13068 1 0.16500 119244.000000
6095 16202 1 0.16500 119244.000000
6096 13068 1 0.16500 119244.000000
6096 13385 1 0.16500 119244.000000
6097 13069 1 0.16500 119244.000000
6097 13429 1 0.16500 119244.000000
6098 13069 1 0.16500 119244.000000
6098 13489 1 0.16500 119244.000000
6099 14436 1 0.16500 119244.000000
6099 20778 1 0.16500 119244.000000
6100 20778 1 0.16500 119244.000000
6100 22287 1 0.16500 119244.000000
6101 14085 1 0.16500 119244.000000
6101 20778 1 0.16500 119244.000000
6102 13070 1 0.16500 119244.000000
6102 14862 1 0.16500 119244.000000
6103 13070 1 0.16500 119244.000000
6103 16434 1 0.16500 119244.000000
6104 13071 1 0.16500 119244.000000
6104 15918 1 0.16500 119244.000000
6105 13071 1 0.16500 119244.000000
6105 13546 1 0.16500 119244.000000
6106 13071 1 0.16500 119244.000000
6106 14283 1 0.16500 119244.000000
6107 13071 1 0.16500 119244.000000
6107 14591 1 0.16500 119244.000000
6108 15819 1 0.16500 119244.000000
6108 20790 1 0.16500 119244.000000
6109 15798 1 0.16500 119244.000000
6109 20790 1 0.16500 119244.000000
6110 15280 1 0.16500 119244.000000
6110 20790 1 0.16500 119244.000000
6111 13072 1 0.16500 119244.000000
6111 14494 1 0.16500 119244.000000
6112 14907 1 0.16500 119244.000000
6112 15180 1 0.16500 119244.000000
6113 13072 1 0.16500 119244.000000
6113 14907 1 0.16500 119244.000000
6114 15910 1 0.16500 119244.000000
6114 15963 1 0.16500 119244.000000
6115 13073 1 0.16500 119244.000000
6115 15529 1 0.16500 119244.000000
6116 12667 1 0.16500 119244.000000
6116 13074 1 0.16500 119244.000000
6117 13074 1 0.16500 119244.000000
6117 16193 1 0.16500 119244.000000
6118 13075 1 0.16500 119244.000000
6118 16025 1 0.16500 119244.000000
6119 13076 1 0.16500 119244.000000
6119 15736 1 0.16500 119244.000000
6120 13076 1 0.16500 119244.000000
6120 13106 1 0.16500 119244.000000
6121 13076 1 0.16500 119244.000000
6121 13759 1 0.16500 119244.000000
6122 13077 1 0.16500 119244.000000
6122 15797 1 0.16500 119244.000000
6123 13077 1 0.16500 119244.000000
6123 13804 1 0.16500 119244.000000
6124 13078 1 0.16500 119244.000000
6124 14564 1 0.16500 119244.000000
6125 13078 1 0.16500 119244.000000
6125 15824 1 0.16500 119244.000000
6126 13078 1 0.16500 119244.000000
6126 17370 1 0.16500 119244.000000
6127 13078 1 0.16500 119244.000000
6127 13254 1 0.16500 119244.000000
6128 13079 1 0.16500 119244.000000
6128 13473 1 0.16500 119244.000000
6129 12132 1 0.16500 119244.000000
6129 13080 1 0.16500 119244.000000
6130 13080 1 0.16500 119244.000000
6130 17762 1 0.16500 119244.000000
6131 13080 1 0.16500 119244.000000
6131 14200 1 0.16500 119244.000000
6132 13081 1 0.16500 119244.000000
6132 13082 1 0.16500 119244.000000
6133 13081 1 0.16500 119244.000000
6133 13269 1 0.16500 119244.000000
6134 13081 1 0.16500 119244.000000
6134 15380 1 0.16500 119244.000000
6135 13503 1 0.16500 119244.000000
6135 15300 1 0.16500 119244.000000
6136 13082 1 0.16500 119244.000000
6136 13109 1 0.16500 119244.000000
6137 13083 1 0.16500 119244.000000
6137 14838 1 0.16500 119244.000000
6138 13083 1 0.16500 119244.000000
6138 13572 1 0.16500 119244.000000
6139 13083 1 0.16500 119244.000000
6139 13840 1 0.16500 119244.000000
6140 13083 1 0.16500 119244.000000
6140 15917 1 0.16500 119244.000000
6141 13084 1 0.16500 119244.000000
6141 13232 1 0.16500 119244.000000
6142 13084 1 0.16500 119244.000000
6142 15838 1 0.16500 119244.000000
6143 13084 1 0.16500 119244.000000
6143 14122 1 0.16500 119244.000000
6144 13085 1 0.16500 119244.000000
6144 22233 1 0.16500 119244.000000
6145 14050 1 0.16500 119244.000000
6145 14596 1 0.16500 119244.000000
6146 13086 1 0.16500 119244.000000
6146 14050 1 0.16500 119244.000000
6147 14050 1 0.16500 119244.000000
6147 15675 1 0.16500 119244.000000
6148 20802 1 0.16500 119244.000000
6148 21486 1 0.16500 119244.000000
6149 20802 1 0.16500 119244.000000
6149 22053 1 0.16500 119244.000000
6150 13087 1 0.16500 119244.000000
6150 22278 1 0.16500 119244.000000
6151 13087 1 0.16500 119244.000000
6151 22356 1 0.16500 119244.000000
6152 13087 1 0.16500 119244.000000
6152 22080 1 0.16500 119244.000000
6153 13087 1 0.16500 119244.000000
6153 15408 1 0.16500 119244.000000
6154 13088 1 0.16500 119244.000000
6154 14086 1 0.16500 119244.000000
6155 13089 1 0.16500 119244.000000
6155 14079 1 0.16500 119244.000000
6156 13089 1 0.16500 119244.000000
6156 14238 1 0.16500 119244.000000
6157 13089 1 0.16500 119244.000000
6157 13918 1 0.16500 119244.000000
6158 13090 1 0.16500 119244.000000
6158 15765 1 0.16500 119244.000000
6159 13090 1 0.16500 119244.000000
6159 13892 1 0.16500 119244.000000
6160 13091 1 0.16500 119244.000000
6160 14274 1 0.16500 119244.000000
6161 12672 1 0.16500 119244.000000
6161 13577 1 0.16500 119244.000000
6162 13577 1 0.16500 119244.000000
6162 15643 1 0.16500 119244.000000
6163 13529 1 0.16500 119244.000000
6163 20814 1 0.16500 119244.000000
6164 13644 1 0.16500 119244.000000
6164 20814 1 0.16500 119244.000000
6165 13092 1 0.16500 119244.000000
6165 14319 1 0.16500 119244.000000
6166 13092 1 0.16500 119244.000000
6166 13863 1 0.16500 119244.000000
6167 14203 1 0.16500 119244.000000
6167 16255 1 0.16500 119244.000000
6168 13093 1 0.16500 119244.000000
6168 15788 1 0.16500 119244.000000
6169 13093 1 0.16500 119244.000000
6169 15412 1 0.16500 119244.000000
6170 13093 1 0.16500 119244.000000
6170 14203 1 0.16500 119244.000000
6171 13094 1 0.16500 119244.000000
6171 15343 1 0.16500 119244.000000
6172 13094 1 0.16500 119244.000000
6172 21831 1 0.16500 119244.000000
6173 20826 1 0.16500 119244.000000
6173 21750 1 0.16500 119244.000000
6174 14329 1 0.16500 119244.000000
6174 20826 1 0.16500 119244.000000
6175 15817 1 0.16500 119244.000000
6175 16526 1 0.16500 119244.000000
6176 13095 1 0.16500 119244.000000
6176 13524 1 0.16500 119244.000000
6177 13095 1 0.16500 119244.000000
6177 16180 1 0.16500 119244.000000
6178 11854 1 0.16500 119244.000000
6178 16526 1 0.16500 119244.000000
6179 13096 1 0.16500 119244.000000
6179 14869 1 0.16500 119244.000000
6180 13096 1 0.16500 119244.000000
6180 13125 1 0.16500 119244.000000
6181 13097 1 0.16500 119244.000000
6181 15610 1 0.16500 119244.000000
6182 13097 1 0.16500 119244.000000
6182 16217 1 0.16500 119244.000000
6183 13097 1 0.16500 119244.000000
6183 14124 1 0.16500 119244.000000
6184 13097 1 0.16500 119244.000000
6184 14286 1 0.16500 119244.000000
6185 13098 1 0.16500 119244.000000
6185 14384 1 0.16500 119244.000000
6186 13098 1 0.16500 119244.000000
6186 16558 1 0.16500 119244.000000
6187 13098 1 0.16500 119244.000000
6187 18224 1 0.16500 119244.000000
6188 13099 1 0.16500 119244.000000
6188 13340 1 0.16500 119244.000000
6189 13099 1 0.16500 119244.000000
6189 16260 1 0.16500 119244.000000
6190 13099 1 0.16500 119244.000000
6190 14225 1 0.16500 119244.000000
6191 13099 1 0.16500 119244.000000
6191 13591 1 0.16500 119244.000000
6192 14411 1 0.16500 119244.000000
6192 20838 1 0.16500 119244.000000
6193 13100 1 0.16500 119244.000000
6193 14462 1 0.16500 119244.000000
6194 13100 1 0.16500 119244.000000
6194 13659 1 0.16500 119244.000000
6195 13100 1 0.16500 119244.000000
6195 14816 1 0.16500 119244.000000
6196 13100 1 0.16500 119244.000000
6196 14178 1 0.16500 119244.000000
6197 15819 1 0.16500 119244.000000
6197 20850 1 0.16500 119244.000000
6198 15017 1 0.16500 119244.000000
6198 20850 1 0.16500 119244.000000
6199 14366 1 0.16500 119244.000000
6199 16768 1 0.16500 119244.000000
6200 13101 1 0.16500 119244.000000
6200 15787 1 0.16500 119244.000000
6201 13101 1 0.16500 119244.000000
6201 14556 1 0.16500 119244.000000
6202 13101 1 0.16500 119244.000000
6202 13365 1 0.16500 119244.000000
6203 13102 1 0.16500 119244.000000
6203 13499 1 0.16500 119244.000000
6204 13102 1 0.16500 119244.000000
6204 13449 1 0.16500 119244.000000
6205 13103 1 0.16500 119244.000000
6205 14240 1 0.16500 119244.000000
6206 13103 1 0.16500 119244.000000
6206 16004 1 0.16500 119244.000000
6207 13103 1 0.16500 119244.000000
6207 14808 1 0.16500 119244.000000
6208 13104 1 0.16500 119244.000000
6208 14387 1 0.16500 119244.000000
6209 13104 1 0.16500 119244.000000
6209 14379 1 0.16500 119244.000000
6210 13105 1 0.16500 119244.000000
6210 14846 1 0.16500 119244.000000
6211 13105 1 0.16500 119244.000000
6211 15874 1 0.16500 119244.000000
6212 13105 1 0.16500 119244.000000
6212 14468 1 0.16500 119244.000000
6213 13105 1 0.16500 119244.000000
6213 16246 1 0.16500 119244.000000
6214 13106 1 0.16500 119244.000000
6214 13329 1 0.16500 119244.000000
6215 13107 1 0.16500 119244.000000
6215 13680 1 0.16500 119244.000000
6216 13107 1 0.16500 119244.000000
6216 13278 1 0.16500 119244.000000
6217 13107 1 0.16500 119244.000000
6217 13950 1 0.16500 119244.000000
6218 13108 1 0.16500 119244.000000
6218 15092 1 0.16500 119244.000000
6219 13108 1 0.16500 119244.000000
6219 17734 1 0.16500 119244.000000
6220 13109 1 0.16500 119244.000000
6220 15574 1 0.16500 119244.000000
6221 13110 1 0.16500 119244.000000
6221 16405 1 0.16500 119244.000000
6222 12806 1 0.16500 119244.000000
6222 13110 1 0.16500 119244.000000
6223 13111 1 0.16500 119244.000000
6223 15637 1 0.16500 119244.000000
6224 13111 1 0.16500 119244.000000
6224 14097 1 0.16500 119244.000000
6225 13111 1 0.16500 119244.000000
6225 22194 1 0.16500 119244.000000
6226 13112 1 0.16500 119244.000000
6226 14679 1 0.16500 119244.000000
6227 13112 1 0.16500 119244.000000
6227 16058 1 0.16500 119244.000000
6228 13112 1 0.16500 119244.000000
6228 14080 1 0.16500 119244.000000
6229 15275 1 0.16500 119244.000000
6229 20862 1 0.16500 119244.000000
6230 16487 1 0.16500 119244.000000
6230 20874 1 0.16500 119244.000000
6231 14065 1 0.16500 119244.000000
6231 20874 1 0.16500 119244.000000
6232 20874 1 0.16500 119244.000000
6232 21780 1 0.16500 119244.000000
6233 19122 1 0.16500 119244.000000
6233 20886 1 0.16500 119244.000000
6234 12495 1 0.16500 119244.000000
6234 13979 1 0.16500 119244.000000
6235 13113 1 0.16500 119244.000000
6235 17860 1 0.16500 119244.000000
6236 13114 1 0.16500 119244.000000
6236 14292 1 0.16500 119244.000000
6237 13114 1 0.16500 119244.000000
6237 13512 1 0.16500 119244.000000
6238 13114 1 0.16500 119244.000000
6238 21939 1 0.16500 119244.000000
6239 13115 1 0.16500 119244.000000
6239 15909 1 0.16500 119244.000000
6240 13115 1 0.16500 119244.000000
6240 13908 1 0.16500 119244.000000
6241 13115 1 0.16500 119244.000000
6241 16380 1 0.16500 119244.000000
6242 13115 1 0.16500 119244.000000
6242 16437 1 0.16500 119244.000000
6243 13116 1 0.16500 119244.000000
6243 13813 1 0.16500 119244.000000
6244 13116 1 0.16500 119244.000000
6244 15146 1 0.16500 119244.000000
6245 13117 1 0.16500 119244.000000
6245 16182 1 0.16500 119244.000000
6246 13118 1 0.16500 119244.000000
6246 15064 1 0.16500 119244.000000
6247 13118 1 0.16500 119244.000000
6247 15823 1 0.16500 119244.000000
6248 13119 1 0.16500 119244.000000
6248 15610 1 0.16500 119244.000000
6249 13119 1 0.16500 119244.000000
6249 14444 1 0.16500 119244.000000
6250 13119 1 0.16500 119244.000000
6250 13250 1 0.16500 119244.000000
6251 13120 1 0.16500 119244.000000
6251 18406 1 0.16500 119244.000000
6252 13121 1 0.16500 119244.000000
6252 15917 1 0.16500 119244.000000
6253 13121 1 0.16500 119244.000000
6253 14361 1 0.16500 119244.000000
6254 13121 1 0.16500 119244.000000
6254 14218 1 0.16500 119244.000000
6255 13122 1 0.16500 119244.000000
6255 14386 1 0.16500 119244.000000
6256 14275 1 0.16500 119244.000000
6256 14944 1 0.16500 119244.000000
6257 13122 1 0.16500 119244.000000
6257 13398 1 0.16500 119244.000000
6258 13122 1 0.16500 119244.000000
6258 14275 1 0.16500 119244.000000
6259 13123 1 0.16500 119244.000000
6259 14194 1 0.16500 119244.000000
6260 13123 1 0.16500 119244.000000
6260 16233 1 0.16500 119244.000000
6261 13123 1 0.16500 119244.000000
6261 15654 1 0.16500 119244.000000
6262 20898 1 0.16500 119244.000000
6262 22311 1 0.16500 119244.000000
6263 20898 1 0.16500 119244.000000
6263 22017 1 0.16500 119244.000000
6264 14152 1 0.16500 119244.000000
6264 20898 1 0.16500 119244.000000
6265 13124 1 0.16500 119244.000000
6265 13462 1 0.16500 119244.000000
6266 11441 1 0.16500 119244.000000
6266 15721 1 0.16500 119244.000000
6267 20910 1 0.16500 119244.000000
6267 22044 1 0.16500 119244.000000
6268 13126 1 0.16500 119244.000000
6268 16326 1 0.16500 119244.000000
6269 13126 1 0.16500 119244.000000
6269 15584 1 0.16500 119244.000000
6270 13126 1 0.16500 119244.000000
6270 14698 1 0.16500 119244.000000
6271 13126 1 0.16500 119244.000000
6271 15953 1 0.16500 119244.000000
6272 13127 1 0.16500 119244.000000
6272 15646 1 0.16500 119244.000000
6273 13127 1 0.16500 119244.000000
6273 15471 1 0.16500 119244.000000
6274 13127 1 0.16500 119244.000000
6274 14621 1 0.16500 119244.000000
6275 13964 1 0.16500 119244.000000
6275 14621 1 0.16500 119244.000000
6276 13128 1 0.16500 119244.000000
6276 13834 1 0.16500 119244.000000
6277 13128 1 0.16500 119244.000000
6277 13757 1 0.16500 119244.000000
6278 13129 1 0.16500 119244.000000
6278 16373 1 0.16500 119244.000000
6279 13129 1 0.16500 119244.000000
6279 14884 1 0.16500 119244.000000
6280 13129 1 0.16500 119244.000000
6280 16167 1 0.16500 119244.000000
6281 13129 1 0.16500 119244.000000
6281 15054 1 0.16500 119244.000000
6282 13130 1 0.16500 119244.000000
6282 16433 1 0.16500 119244.000000
6283 12301 1 0.16500 119244.000000
6283 13131 1 0.16500 119244.000000
6284 13131 1 0.16500 119244.000000
6284 16051 1 0.16500 119244.000000
6285 13131 1 0.16500 119244.000000
6285 15071 1 0.16500 119244.000000
6286 13132 1 0.16500 119244.000000
6286 15734 1 0.16500 119244.000000
6287 13132 1 0.16500 119244.000000
6287 15912 1 0.16500 119244.000000
6288 13133 1 0.16500 119244.000000
6288 16315 1 0.16500 119244.000000
6289 13133 1 0.16500 119244.000000
6289 16026 1 0.16500 119244.000000
6290 13134 1 0.16500 119244.000000
6290 16325 1 0.16500 119244.000000
6291 13134 1 0.16500 119244.000000
6291 16068 1 0.16500 119244.000000
6292 13135 1 0.16500 119244.000000
6292 14510 1 0.16500 119244.000000
6293 13135 1 0.16500 119244.000000
6293 15021 1 0.16500 119244.000000
6294 13135 1 0.16500 119244.000000
6294 13959 1 0.16500 119244.000000
6295 13136 1 0.16500 119244.000000
6295 15795 1 0.16500 119244.000000
6296 13136 1 0.16500 119244.000000
6296 15745 1 0.16500 119244.000000
6297 13137 1 0.16500 119244.000000
6297 15784 1 0.16500 119244.000000
6298 13137 1 0.16500 119244.000000
6298 15863 1 0.16500 119244.000000
6299 13137 1 0.16500 119244.000000
6299 15382 1 0.16500 119244.000000
6300 13137 1 0.16500 119244.000000
6300 15476 1 0.16500 119244.000000
6301 13138 1 0.16500 119244.000000
6301 14443 1 0.16500 119244.000000
6302 13138 1 0.16500 119244.000000
6302 16139 1 0.16500 119244.000000
6303 13138 1 0.16500 119244.000000
6303 18196 1 0.16500 119244.000000
6304 13139 1 0.16500 119244.000000
6304 16067 1 0.16500 119244.000000
6305 13139 1 0.16500 119244.000000
6305 16018 1 0.16500 119244.000000
6306 13140 1 0.16500 119244.000000
6306 14176 1 0.16500 119244.000000
6307 13140 1 0.16500 119244.000000
6307 21837 1 0.16500 119244.000000
6308 13140 1 0.16500 119244.000000
6308 16257 1 0.16500 119244.000000
6309 13141 1 0.16500 119244.000000
6309 14919 1 0.16500 119244.000000
6310 13141 1 0.16500 119244.000000
6310 21714 1 0.16500 119244.000000
6311 13142 1 0.16500 119244.000000
6311 13748 1 0.16500 119244.000000
6312 13142 1 0.16500 119244.000000
6312 14325 1 0.16500 119244.000000
6313 13142 1 0.16500 119244.000000
6313 13162 1 0.16500 119244.000000
6314 20922 1 0.16500 119244.000000
6314 21855 1 0.16500 119244.000000
6315 15394 1 0.16500 119244.000000
6315 20922 1 0.16500 119244.000000
6316 13143 1 0.16500 119244.000000
6316 16026 1 0.16500 119244.000000
6317 13143 1 0.16500 119244.000000
6317 15826 1 0.16500 119244.000000
6318 13143 1 0.16500 119244.000000
6318 13887 1 0.16500 119244.000000
6319 13144 1 0.16500 119244.000000
6319 14901 1 0.16500 119244.000000
6320 13144 1 0.16500 119244.000000
6320 14538 1 0.16500 119244.000000
6321 13086 1 0.16500 119244.000000
6321 13144 1 0.16500 119244.000000
6322 13144 1 0.16500 119244.000000
6322 16308 1 0.16500 119244.000000
6323 13145 1 0.16500 119244.000000
6323 13673 1 0.16500 119244.000000
6324 13145 1 0.16500 119244.000000
6324 15293 1 0.16500 119244.000000
6325 13146 1 0.16500 119244.000000
6325 16368 1 0.16500 119244.000000
6326 13146 1 0.16500 119244.000000
6326 14013 1 0.16500 119244.000000
6327 13146 1 0.16500 119244.000000
6327 13588 1 0.16500 119244.000000
6328 13147 1 0.16500 119244.000000
6328 16372 1 0.16500 119244.000000
6329 13147 1 0.16500 119244.000000
6329 16435 1 0.16500 119244.000000
6330 13147 1 0.16500 119244.000000
6330 15770 1 0.16500 119244.000000
6331 13148 1 0.16500 119244.000000
6331 14601 1 0.16500 119244.000000
6332 13148 1 0.16500 119244.000000
6332 16270 1 0.16500 119244.000000
6333 13148 1 0.16500 119244.000000
6333 15305 1 0.16500 119244.000000
6334 13148 1 0.16500 119244.000000
6334 13918 1 0.16500 119244.000000
6335 14466 1 0.16500 119244.000000
6335 20934 1 0.16500 119244.000000
6336 13149 1 0.16500 119244.000000
6336 14318 1 0.16500 119244.000000
6337 14318 1 0.16500 119244.000000
6337 15838 1 0.16500 119244.000000
6338 13150 1 0.16500 119244.000000
6338 13657 1 0.16500 119244.000000
6339 13150 1 0.16500 119244.000000
6339 16163 1 0.16500 119244.000000
6340 13151 1 0.16500 119244.000000
6340 16517 1 0.16500 119244.000000
6341 13151 1 0.16500 119244.000000
6341 22332 1 0.16500 119244.000000
6342 13151 1 0.16500 119244.000000
6342 15232 1 0.16500 119244.000000
6343 13152 1 0.16500 119244.000000
6343 15556 1 0.16500 119244.000000
6344 15556 1 0.16500 119244.000000
6344 15644 1 0.16500 119244.000000
6345 13152 1 0.16500 119244.000000
6345 16190 1 0.16500 119244.000000
6346 13153 1 0.16500 119244.000000
6346 13470 1 0.16500 119244.000000
6347 13153 1 0.16500 119244.000000
6347 15281 1 0.16500 119244.000000
6348 13153 1 0.16500 119244.000000
6348 16441 1 0.16500 119244.000000
6349 13153 1 0.16500 119244.000000
6349 13317 1 0.16500 119244.000000
6350 20946 1 0.16500 119244.000000
6350 21762 1 0.16500 119244.000000
6351 16380 1 0.16500 119244.000000
6351 20946 1 0.16500 119244.000000
6352 13154 1 0.16500 119244.000000
6352 16332 1 0.16500 119244.000000
6353 13154 1 0.16500 119244.000000
6353 16145 1 0.16500 119244.000000
6354 13155 1 0.16500 119244.000000
6354 13321 1 0.16500 119244.000000
6355 13155 1 0.16500 119244.000000
6355 16508 1 0.16500 119244.000000
6356 12763 1 0.16500 119244.000000
6356 15624 1 0.16500 119244.000000
6357 13156 1 0.16500 119244.000000
6357 14194 1 0.16500 119244.000000
6358 13157 1 0.16500 119244.000000
6358 13876 1 0.16500 119244.000000
6359 13157 1 0.16500 119244.000000
6359 15135 1 0.16500 119244.000000
6360 13158 1 0.16500 119244.000000
6360 15644 1 0.16500 119244.000000
6361 13935 1 0.16500 119244.000000
6361 15448 1 0.16500 119244.000000
6362 13158 1 0.16500 119244.000000
6362 14924 1 0.16500 119244.000000
6363 13158 1 0.16500 119244.000000
6363 13935 1 0.16500 119244.000000
6364 13159 1 0.16500 119244.000000
6364 21573 1 0.16500 119244.000000
6365 13159 1 0.16500 119244.000000
6365 14301 1 0.16500 119244.000000
6366 13159 1 0.16500 119244.000000
6366 22095 1 0.16500 119244.000000
6367 13159 1 0.16500 119244.000000
6367 14654 1 0.16500 119244.000000
6368 13160 1 0.16500 119244.000000
6368 13361 1 0.16500 119244.000000
6369 12632 1 0.16500 119244.000000
6369 13160 1 0.16500 119244.000000
6370 13160 1 0.16500 119244.000000
6370 14052 1 0.16500 119244.000000
6371 13161 1 0.16500 119244.000000
6371 15116 1 0.16500 119244.000000
6372 13161 1 0.16500 119244.000000
6372 14557 1 0.16500 119244.000000
6373 13161 1 0.16500 119244.000000
6373 15320 1 0.16500 119244.000000
6374 13162 1 0.16500 119244.000000
6374 16325 1 0.16500 119244.000000
6375 13162 1 0.16500 119244.000000
6375 15438 1 0.16500 119244.000000
6376 13163 1 0.16500 119244.000000
6376 14935 1 0.16500 119244.000000
6377 13163 1 0.16500 119244.000000
6377 15149 1 0.16500 119244.000000
6378 13164 1 0.16500 119244.000000
6378 15909 1 0.16500 119244.000000
6379 13164 1 0.16500 119244.000000
6379 21561 1 0.16500 119244.000000
6380 13164 1 0.16500 119244.000000
6380 21762 1 0.16500 119244.000000
6381 13165 1 0.16500 119244.000000
6381 16169 1 0.16500 119244.000000
6382 15256 1 0.16500 119244.000000
6382 20958 1 0.16500 119244.000000
6383 20970 1 0.16500 119244.000000
6383 21186 1 0.16500 119244.000000
6384 14466 1 0.16500 119244.000000
6384 20970 1 0.16500 119244.000000
6385 14059 1 0.16500 119244.000000
6385 20982 1 0.16500 119244.000000
6386 20982 1 0.16500 119244.000000
6386 22248 1 0.16500 119244.000000
6387 13166 1 0.16500 119244.000000
6387 13827 1 0.16500 119244.000000
6388 13166 1 0.16500 119244.000000
6388 14298 1 0.16500 119244.000000
6389 13166 1 0.16500 119244.000000
6389 14694 1 0.16500 119244.000000
6390 13166 1 0.16500 119244.000000
6390 15870 1 0.16500 119244.000000
6391 13167 1 0.16500 119244.000000
6391 15701 1 0.16500 119244.000000
6392 13167 1 0.16500 119244.000000
6392 13172 1 0.16500 119244.000000
6393 13167 1 0.16500 119244.000000
6393 16232 1 0.16500 119244.000000
6394 13167 1 0.16500 119244.000000
6394 16355 1 0.16500 119244.000000
6395 13426 1 0.16500 119244.000000
6395 20994 1 0.16500 119244.000000
6396 20994 1 0.16500 119244.000000
6396 22065 1 0.16500 119244.000000
6397 14414 1 0.16500 119244.000000
6397 20994 1 0.16500 119244.000000
6398 13168 1 0.16500 119244.000000
6398 13304 1 0.16500 119244.000000
6399 13168 1 0.16500 119244.000000
6399 15666 1 0.16500 119244.000000
6400 13304 1 0.16500 119244.000000
6400 14804 1 0.16500 119244.000000
6401 14883 1 0.16500 119244.000000
6401 16126 1 0.16500 119244.000000
6402 13169 1 0.16500 119244.000000
6402 13790 1 0.16500 119244.000000
6403 13169 1 0.16500 119244.000000
6403 14854 1 0.16500 119244.000000
6404 13170 1 0.16500 119244.000000
6404 16380 1 0.16500 119244.000000
6405 13170 1 0.16500 119244.000000
6405 15097 1 0.16500 119244.000000
6406 13170 1 0.16500 119244.000000
6406 13184 1 0.16500 119244.000000
6407 13171 1 0.16500 119244.000000
6407 13574 1 0.16500 119244.000000
6408 13171 1 0.16500 119244.000000
6408 15931 1 0.16500 119244.000000
6409 13172 1 0.16500 119244.000000
6409 14863 1 0.16500 119244.000000
6410 13173 1 0.16500 119244.000000
6410 13584 1 0.16500 119244.000000
6411 13173 1 0.16500 119244.000000
6411 15729 1 0.16500 119244.000000
6412 14565 1 0.16500 119244.000000
6412 15725 1 0.16500 119244.000000
6413 14542 1 0.16500 119244.000000
6413 15725 1 0.16500 119244.000000
6414 13174 1 0.16500 119244.000000
6414 15725 1 0.16500 119244.000000
6415 13175 1 0.16500 119244.000000
6415 14894 1 0.16500 119244.000000
6416 13176 1 0.16500 119244.000000
6416 16119 1 0.16500 119244.000000
6417 15710 1 0.16500 119244.000000
6417 18028 1 0.16500 119244.000000
6418 13176 1 0.16500 119244.000000
6418 15710 1 0.16500 119244.000000
6419 13177 1 0.16500 119244.000000
6419 13480 1 0.16500 119244.000000
6420 13177 1 0.16500 119244.000000
6420 16048 1 0.16500 119244.000000
6421 13178 1 0.16500 119244.000000
6421 14309 1 0.16500 119244.000000
6422 13178 1 0.16500 119244.000000
6422 15507 1 0.16500 119244.000000
6423 13179 1 0.16500 119244.000000
6423 13318 1 0.16500 119244.000000
6424 13180 1 0.16500 119244.000000
6424 14056 1 0.16500 119244.000000
6425 13180 1 0.16500 119244.000000
6425 15968 1 0.16500 119244.000000
6426 13180 1 0.16500 119244.000000
6426 14210 1 0.16500 119244.000000
6427 13180 1 0.16500 119244.000000
6427 21438 1 0.16500 119244.000000
6428 13181 1 0.16500 119244.000000
6428 15678 1 0.16500 119244.000000
6429 13181 1 0.16500 119244.000000
6429 14431 1 0.16500 119244.000000
6430 13182 1 0.16500 119244.000000
6430 15403 1 0.16500 119244.000000
6431 13182 1 0.16500 119244.000000
6431 13588 1 0.16500 119244.000000
6432 13183 1 0.16500 119244.000000
6432 15955 1 0.16500 119244.000000
6433 13183 1 0.16500 119244.000000
6433 13603 1 0.16500 119244.000000
6434 13184 1 0.16500 119244.000000
6434 14782 1 0.16500 119244.000000
6435 13184 1 0.16500 119244.000000
6435 15215 1 0.16500 119244.000000
6436 13184 1 0.16500 119244.000000
6436 15067 1 0.16500 119244.000000
6437 15215 1 0.16500 119244.000000
6437 16262 1 0.16500 119244.000000
6438 13185 1 0.16500 119244.000000
6438 13926 1 0.16500 119244.000000
6439 13185 1 0.16500 119244.000000
6439 14191 1 0.16500 119244.000000
6440 13186 1 0.16500 119244.000000
6440 17818 1 0.16500 119244.000000
6441 13186 1 0.16500 119244.000000
6441 22182 1 0.16500 119244.000000
6442 13186 1 0.16500 119244.000000
6442 15457 1 0.16500 119244.000000
6443 13187 1 0.16500 119244.000000
6443 13687 1 0.16500 119244.000000
6444 13187 1 0.16500 119244.000000
6444 13469 1 0.16500 119244.000000
6445 13187 1 0.16500 119244.000000
6445 13545 1 0.16500 119244.000000
6446 13187 1 0.16500 119244.000000
6446 13857 1 0.16500 119244.000000
6447 13188 1 0.16500 119244.000000
6447 13595 1 0.16500 119244.000000
6448 13188 1 0.16500 119244.000000
6448 21627 1 0.16500 119244.000000
6449 13188 1 0.16500 119244.000000
6449 13940 1 0.16500 119244.000000
6450 13189 1 0.16500 119244.000000
6450 13600 1 0.16500 119244.000000
6451 13189 1 0.16500 119244.000000
6451 14801 1 0.16500 119244.000000
6452 13189 1 0.16500 119244.000000
6452 22077 1 0.16500 119244.000000
6453 13190 1 0.16500 119244.000000
6453 14475 1 0.16500 119244.000000
6454 13190 1 0.16500 119244.000000
6454 15449 1 0.16500 119244.000000
6455 13190 1 0.16500 119244.000000
6455 15667 1 0.16500 119244.000000
6456 13191 1 0.16500 119244.000000
6456 13836 1 0.16500 119244.000000
6457 13191 1 0.16500 119244.000000
6457 13264 1 0.16500 119244.000000
6458 13191 1 0.16500 119244.000000
6458 14159 1 0.16500 119244.000000
6459 13191 1 0.16500 119244.000000
6459 15850 1 0.16500 119244.000000
6460 13192 1 0.16500 119244.000000
6460 14424 1 0.16500 119244.000000
6461 13192 1 0.16500 119244.000000
6461 13789 1 0.16500 119244.000000
6462 13192 1 0.16500 119244.000000
6462 14067 1 0.16500 119244.000000
6463 13192 1 0.16500 119244.000000
6463 15191 1 0.16500 119244.000000
6464 13193 1 0.16500 119244.000000
6464 14452 1 0.16500 119244.000000
6465 13193 1 0.16500 119244.000000
6465 15251 1 0.16500 119244.000000
6466 13193 1 0.16500 119244.000000
6466 15735 1 0.16500 119244.000000
6467 13194 1 0.16500 119244.000000
6467 15295 1 0.16500 119244.000000
6468 12438 1 0.16500 119244.000000
6468 13939 1 0.16500 119244.000000
6469 13195 1 0.16500 119244.000000
6469 13825 1 0.16500 119244.000000
6470 12438 1 0.16500 119244.000000
6470 14673 1 0.16500 119244.000000
6471 13196 1 0.16500 119244.000000
6471 13983 1 0.16500 119244.000000
6472 13196 1 0.16500 119244.000000
6472 14490 1 0.16500 119244.000000
6473 13197 1 0.16500 119244.000000
6473 15594 1 0.16500 119244.000000
6474 13197 1 0.16500 119244.000000
6474 15257 1 0.16500 119244.000000
6475 13197 1 0.16500 119244.000000
6475 15680 1 0.16500 119244.000000
6476 13198 1 0.16500 119244.000000
6476 13364 1 0.16500 119244.000000
6477 13198 1 0.16500 119244.000000
6477 14823 1 0.16500 119244.000000
6478 13198 1 0.16500 119244.000000
6478 15453 1 0.16500 119244.000000
6479 12792 1 0.16500 119244.000000
6479 13199 1 0.16500 119244.000000
6480 13200 1 0.16500 119244.000000
6480 15768 1 0.16500 119244.000000
6481 13200 1 0.16500 119244.000000
6481 13914 1 0.16500 119244.000000
6482 13200 1 0.16500 119244.000000
6482 15002 1 0.16500 119244.000000
6483 13201 1 0.16500 119244.000000
6483 14848 1 0.16500 119244.000000
6484 13201 1 0.16500 119244.000000
6484 15473 1 0.16500 119244.000000
6485 13201 1 0.16500 119244.000000
6485 14296 1 0.16500 119244.000000
6486 21018 1 0.16500 119244.000000
6486 21540 1 0.16500 119244.000000
6487 14330 1 0.16500 119244.000000
6487 21018 1 0.16500 119244.000000
6488 14270 1 0.16500 119244.000000
6488 14330 1 0.16500 119244.000000
6489 13202 1 0.16500 119244.000000
6489 14663 1 0.16500 119244.000000
6490 13203 1 0.16500 119244.000000
6490 13963 1 0.16500 119244.000000
6491 13203 1 0.16500 119244.000000
6491 15357 1 0.16500 119244.000000
6492 12232 1 0.16500 119244.000000
6492 17706 1 0.16500 119244.000000
6493 13204 1 0.16500 119244.000000
6493 14423 1 0.16500 119244.000000
6494 13204 1 0.16500 119244.000000
6494 16041 1 0.16500 119244.000000
6495 13204 1 0.16500 119244.000000
6495 15526 1 0.16500 119244.000000
6496 12026 1 0.16500 119244.000000
6496 13204 1 0.16500 119244.000000
6497 13205 1 0.16500 119244.000000
6497 13904 1 0.16500 119244.000000
6498 13205 1 0.16500 119244.000000
6498 14771 1 0.16500 119244.000000
6499 13205 1 0.16500 119244.000000
6499 14323 1 0.16500 119244.000000
6500 13205 1 0.16500 119244.000000
6500 22323 1 0.16500 119244.000000
6501 13206 1 0.16500 119244.000000
6501 14805 1 0.16500 119244.000000
6502 13206 1 0.16500 119244.000000
6502 13328 1 0.16500 119244.000000
6503 13207 1 0.16500 119244.000000
6503 14182 1 0.16500 119244.000000
6504 13207 1 0.16500 119244.000000
6504 15917 1 0.16500 119244.000000
6505 13208 1 0.16500 119244.000000
6505 16207 1 0.16500 119244.000000
6506 13208 1 0.16500 119244.000000
6506 13523 1 0.16500 119244.000000
6507 13209 1 0.16500 119244.000000
6507 15634 1 0.16500 119244.000000
6508 13210 1 0.16500 119244.000000
6508 15028 1 0.16500 119244.000000
6509 13210 1 0.16500 119244.000000
6509 14997 1 0.16500 119244.000000
6510 13210 1 0.16500 119244.000000
6510 13461 1 0.16500 119244.000000
6511 13210 1 0.16500 119244.000000
6511 14604 1 0.16500 119244.000000
6512 13211 1 0.16500 119244.000000
6512 16284 1 0.16500 119244.000000
6513 13212 1 0.16500 119244.000000
6513 15579 1 0.16500 119244.000000
6514 13212 1 0.16500 119244.000000
6514 14931 1 0.16500 119244.000000
6515 13213 1 0.16500 119244.000000
6515 21600 1 0.16500 119244.000000
6516 13213 1 0.16500 119244.000000
6516 15551 1 0.16500 119244.000000
6517 13214 1 0.16500 119244.000000
6517 15626 1 0.16500 119244.000000
6518 13214 1 0.16500 119244.000000
6518 13489 1 0.16500 119244.000000
6519 15626 1 0.16500 119244.000000
6519 21870 1 0.16500 119244.000000
6520 13215 1 0.16500 119244.000000
6520 16140 1 0.16500 119244.000000
6521 13215 1 0.16500 119244.000000
6521 14175 1 0.16500 119244.000000
6522 13216 1 0.16500 119244.000000
6522 13293 1 0.16500 119244.000000
6523 13216 1 0.16500 119244.000000
6523 15277 1 0.16500 119244.000000
6524 13216 1 0.16500 119244.000000
6524 13982 1 0.16500 119244.000000
6525 13217 1 0.16500 119244.000000
6525 16203 1 0.16500 119244.000000
6526 13985 1 0.16500 119244.000000
6526 21042 1 0.16500 119244.000000
6527 13218 1 0.16500 119244.000000
6527 13387 1 0.16500 119244.000000
6528 13218 1 0.16500 119244.000000
6528 14118 1 0.16500 119244.000000
6529 13218 1 0.16500 119244.000000
6529 16402 1 0.16500 119244.000000
6530 13219 1 0.16500 119244.000000
6530 16332 1 0.16500 119244.000000
6531 13219 1 0.16500 119244.000000
6531 15906 1 0.16500 119244.000000
6532 13220 1 0.16500 119244.000000
6532 13966 1 0.16500 119244.000000
6533 13220 1 0.16500 119244.000000
6533 21819 1 0.16500 119244.000000
6534 13220 1 0.16500 119244.000000
6534 13486 1 0.16500 119244.000000
6535 13220 1 0.16500 119244.000000
6535 13261 1 0.16500 119244.000000
6536 13221 1 0.16500 119244.000000
6536 14108 1 0.16500 119244.000000
6537 13221 1 0.16500 119244.000000
6537 13746 1 0.16500 119244.000000
6538 13222 1 0.16500 119244.000000
6538 22329 1 0.16500 119244.000000
6539 13222 1 0.16500 119244.000000
6539 14472 1 0.16500 119244.000000
6540 13224 1 0.16500 119244.000000
6540 15363 1 0.16500 119244.000000
6541 13224 1 0.16500 119244.000000
6541 15518 1 0.16500 119244.000000
6542 13224 1 0.16500 119244.000000
6542 14444 1 0.16500 119244.000000
6543 13224 1 0.16500 119244.000000
6543 16302 1 0.16500 119244.000000
6544 13225 1 0.16500 119244.000000
6544 13348 1 0.16500 119244.000000
6545 13225 1 0.16500 119244.000000
6545 13934 1 0.16500 119244.000000
6546 13934 1 0.16500 119244.000000
6546 14446 1 0.16500 119244.000000
6547 11629 1 0.16500 119244.000000
6547 13751 1 0.16500 119244.000000
6548 11629 1 0.16500 119244.000000
6548 15614 1 0.16500 119244.000000
6549 11629 1 0.16500 119244.000000
6549 15576 1 0.16500 119244.000000
6550 13227 1 0.16500 119244.000000
6550 14161 1 0.16500 119244.000000
6551 13227 1 0.16500 119244.000000
6551 13723 1 0.16500 119244.000000
6552 13723 1 0.16500 119244.000000
6552 15812 1 0.16500 119244.000000
6553 13228 1 0.16500 119244.000000
6553 13564 1 0.16500 119244.000000
6554 13228 1 0.16500 119244.000000
6554 15208 1 0.16500 119244.000000
6555 11521 1 0.16500 119244.000000
6555 13229 1 0.16500 119244.000000
6556 15883 1 0.16500 119244.000000
6556 21054 1 0.16500 119244.000000
6557 21054 1 0.16500 119244.000000
6557 21162 1 0.16500 119244.000000
6558 21066 1 0.16500 119244.000000
6558 21801 1 0.16500 119244.000000
6559 13230 1 0.16500 119244.000000
6559 16237 1 0.16500 119244.000000
6560 13230 1 0.16500 119244.000000
6560 21126 1 0.16500 119244.000000
6561 13230 1 0.16500 119244.000000
6561 14373 1 0.16500 119244.000000
6562 13230 1 0.16500 119244.000000
6562 16427 1 0.16500 119244.000000
6563 13231 1 0.16500 119244.000000
6563 15007 1 0.16500 119244.000000
6564 13231 1 0.16500 119244.000000
6564 15919 1 0.16500 119244.000000
6565 13231 1 0.16500 119244.000000
6565 14909 1 0.16500 119244.000000
6566 15940 1 0.16500 119244.000000
6566 21078 1 0.16500 119244.000000
6567 21078 1 0.16500 119244.000000
6567 22299 1 0.16500 119244.000000
6568 21078 1 0.16500 119244.000000
6568 21714 1 0.16500 119244.000000
6569 21090 1 0.16500 119244.000000
6569 21891 1 0.16500 119244.000000
6570 16030 1 0.16500 119244.000000
6570 21090 1 0.16500 119244.000000
6571 13232 1 0.16500 119244.000000
6571 16113 1 0.16500 119244.000000
6572 21102 1 0.16500 119244.000000
6572 21900 1 0.16500 119244.000000
6573 15247 1 0.16500 119244.000000
6573 21102 1 0.16500 119244.000000
6574 21558 1 0.16500 119244.000000
6574 21900 1 0.16500 119244.000000
6575 13233 1 0.16500 119244.000000
6575 16277 1 0.16500 119244.000000
6576 13233 1 0.16500 119244.000000
6576 15069 1 0.16500 119244.000000
6577 13233 1 0.16500 119244.000000
6577 15262 1 0.16500 119244.000000
6578 13234 1 0.16500 119244.000000
6578 16291 1 0.16500 119244.000000
6579 13234 1 0.16500 119244.000000
6579 15119 1 0.16500 119244.000000
6580 13234 1 0.16500 119244.000000
6580 13678 1 0.16500 119244.000000
6581 15753 1 0.16500 119244.000000
6581 21114 1 0.16500 119244.000000
6582 13235 1 0.16500 119244.000000
6582 15098 1 0.16500 119244.000000
6583 13235 1 0.16500 119244.000000
6583 13720 1 0.16500 119244.000000
6584 13235 1 0.16500 119244.000000
6584 15842 1 0.16500 119244.000000
6585 13235 1 0.16500 119244.000000
6585 14883 1 0.16500 119244.000000
6586 13236 1 0.16500 119244.000000
6586 15093 1 0.16500 119244.000000
6587 15093 1 0.16500 119244.000000
6587 15812 1 0.16500 119244.000000
6588 13959 1 0.16500 119244.000000
6588 14788 1 0.16500 119244.000000
6589 13237 1 0.16500 119244.000000
6589 14788 1 0.16500 119244.000000
6590 13237 1 0.16500 119244.000000
6590 14702 1 0.16500 119244.000000
6591 13237 1 0.16500 119244.000000
6591 13860 1 0.16500 119244.000000
6592 13238 1 0.16500 119244.000000
6592 13714 1 0.16500 119244.000000
6593 13238 1 0.16500 119244.000000
6593 13285 1 0.16500 119244.000000
6594 13239 1 0.16500 119244.000000
6594 15538 1 0.16500 119244.000000
6595 13239 1 0.16500 119244.000000
6595 15597 1 0.16500 119244.000000
6596 13239 1 0.16500 119244.000000
6596 15381 1 0.16500 119244.000000
6597 13240 1 0.16500 119244.000000
6597 15840 1 0.16500 119244.000000
6598 13240 1 0.16500 119244.000000
6598 14578 1 0.16500 119244.000000
6599 13240 1 0.16500 119244.000000
6599 13873 1 0.16500 119244.000000
6600 14120 1 0.16500 119244.000000
6600 21126 1 0.16500 119244.000000
6601 21126 1 0.16500 119244.000000
6601 21858 1 0.16500 119244.000000
6602 13241 1 0.16500 119244.000000
6602 14878 1 0.16500 119244.000000
6603 13241 1 0.16500 119244.000000
6603 15443 1 0.16500 119244.000000
6604 13241 1 0.16500 119244.000000
6604 14765 1 0.16500 119244.000000
6605 13241 1 0.16500 119244.000000
6605 15650 1 0.16500 119244.000000
6606 13242 1 0.16500 119244.000000
6606 14406 1 0.16500 119244.000000
6607 13242 1 0.16500 119244.000000
6607 14726 1 0.16500 119244.000000
6608 13243 1 0.16500 119244.000000
6608 14526 1 0.16500 119244.000000
6609 13243 1 0.16500 119244.000000
6609 14244 1 0.16500 119244.000000
6610 13243 1 0.16500 119244.000000
6610 15217 1 0.16500 119244.000000
6611 13243 1 0.16500 119244.000000
6611 13789 1 0.16500 119244.000000
6612 13244 1 0.16500 119244.000000
6612 15309 1 0.16500 119244.000000
6613 13244 1 0.16500 119244.000000
6613 14714 1 0.16500 119244.000000
6614 13244 1 0.16500 119244.000000
6614 15623 1 0.16500 119244.000000
6615 13245 1 0.16500 119244.000000
6615 21855 1 0.16500 119244.000000
6616 13237 1 0.16500 119244.000000
6616 13245 1 0.16500 119244.000000
6617 13245 1 0.16500 119244.000000
6617 16039 1 0.16500 119244.000000
6618 13246 1 0.16500 119244.000000
6618 14799 1 0.16500 119244.000000
6619 13246 1 0.16500 119244.000000
6619 15790 1 0.16500 119244.000000
6620 13247 1 0.16500 119244.000000
6620 14319 1 0.16500 119244.000000
6621 13247 1 0.16500 119244.000000
6621 16091 1 0.16500 119244.000000
6622 13670 1 0.16500 119244.000000
6622 14319 1 0.16500 119244.000000
6623 13248 1 0.16500 119244.000000
6623 15264 1 0.16500 119244.000000
6624 13248 1 0.16500 119244.000000
6624 14932 1 0.16500 119244.000000
6625 13249 1 0.16500 119244.000000
6625 15495 1 0.16500 119244.000000
6626 13249 1 0.16500 119244.000000
6626 14880 1 0.16500 119244.000000
6627 13249 1 0.16500 119244.000000
6627 15622 1 0.16500 119244.000000
6628 13249 1 0.16500 119244.000000
6628 15330 1 0.16500 119244.000000
6629 13250 1 0.16500 119244.000000
6629 15272 1 0.16500 119244.000000
6630 13250 1 0.16500 119244.000000
6630 14857 1 0.16500 119244.000000
6631 13251 1 0.16500 119244.000000
6631 14475 1 0.16500 119244.000000
6632 13251 1 0.16500 119244.000000
6632 15724 1 0.16500 119244.000000
6633 13253 1 0.16500 119244.000000
6633 14282 1 0.16500 119244.000000
6634 13253 1 0.16500 119244.000000
6634 15142 1 0.16500 119244.000000
6635 13253 1 0.16500 119244.000000
6635 14463 1 0.16500 119244.000000
6636 13254 1 0.16500 119244.000000
6636 14200 1 0.16500 119244.000000
6637 13254 1 0.16500 119244.000000
6637 14388 1 0.16500 119244.000000
6638 13254 1 0.16500 119244.000000
6638 22191 1 0.16500 119244.000000
6639 13566 1 0.16500 119244.000000
6639 21138 1 0.16500 119244.000000
6640 13255 1 0.16500 119244.000000
6640 16079 1 0.16500 119244.000000
6641 13255 1 0.16500 119244.000000
6641 14169 1 0.16500 119244.000000
6642 13255 1 0.16500 119244.000000
6642 17748 1 0.16500 119244.000000
6643 14751 1 0.16500 119244.000000
6643 21150 1 0.16500 119244.000000
6644 13256 1 0.16500 119244.000000
6644 15927 1 0.16500 119244.000000
6645 13127 1 0.16500 119244.000000
6645 13256 1 0.16500 119244.000000
6646 13256 1 0.16500 119244.000000
6646 16586 1 0.16500 119244.000000
6647 14982 1 0.16500 119244.000000
6647 21162 1 0.16500 119244.000000
6648 16352 1 0.16500 119244.000000
6648 21174 1 0.16500 119244.000000
6649 14597 1 0.16500 119244.000000
6649 21174 1 0.16500 119244.000000
6650 11435 1 0.16500 119244.000000
6650 21174 1 0.16500 119244.000000
6651 13257 1 0.16500 119244.000000
6651 13642 1 0.16500 119244.000000
6652 13257 1 0.16500 119244.000000
6652 13719 1 0.16500 119244.000000
6653 13257 1 0.16500 119244.000000
6653 15072 1 0.16500 119244.000000
6654 13257 1 0.16500 119244.000000
6654 15867 1 0.16500 119244.000000
6655 13258 1 0.16500 119244.000000
6655 13371 1 0.16500 119244.000000
6656 13258 1 0.16500 119244.000000
6656 13575 1 0.16500 119244.000000
6657 13258 1 0.16500 119244.000000
6657 13907 1 0.16500 119244.000000
6658 14582 1 0.16500 119244.000000
6658 21186 1 0.16500 119244.000000
6659 13259 1 0.16500 119244.000000
6659 16014 1 0.16500 119244.000000
6660 13259 1 0.16500 119244.000000
6660 13499 1 0.16500 119244.000000
6661 13259 1 0.16500 119244.000000
6661 14358 1 0.16500 119244.000000
6662 13260 1 0.16500 119244.000000
6662 13732 1 0.16500 119244.000000
6663 13260 1 0.16500 119244.000000
6663 14706 1 0.16500 119244.000000
6664 13261 1 0.16500 119244.000000
6664 17818 1 0.16500 119244.000000
6665 13261 1 0.16500 119244.000000
6665 14542 1 0.16500 119244.000000
6666 13262 1 0.16500 119244.000000
6666 21639 1 0.16500 119244.000000
6667 13262 1 0.16500 119244.000000
6667 15449 1 0.16500 119244.000000
6668 13263 1 0.16500 119244.000000
6668 13635 1 0.16500 119244.000000
6669 13263 1 0.16500 119244.000000
6669 14569 1 0.16500 119244.000000
6670 13263 1 0.16500 119244.000000
6670 15630 1 0.16500 119244.000000
6671 13264 1 0.16500 119244.000000
6671 14644 1 0.16500 119244.000000
6672 13264 1 0.16500 119244.000000
6672 14909 1 0.16500 119244.000000
6673 13265 1 0.16500 119244.000000
6673 16399 1 0.16500 119244.000000
6674 13265 1 0.16500 119244.000000
6674 15681 1 0.16500 119244.000000
6675 13265 1 0.16500 119244.000000
6675 14566 1 0.16500 119244.000000
6676 13266 1 0.16500 119244.000000
6676 13390 1 0.16500 119244.000000
6677 13266 1 0.16500 119244.000000
6677 16507 1 0.16500 119244.000000
6678 13266 1 0.16500 119244.000000
6678 13417 1 0.16500 119244.000000
6679 13267 1 0.16500 119244.000000
6679 15847 1 0.16500 119244.000000
6680 13267 1 0.16500 119244.000000
6680 15960 1 0.16500 119244.000000
6681 13267 1 0.16500 119244.000000
6681 15528 1 0.16500 119244.000000
6682 13267 1 0.16500 119244.000000
6682 14968 1 0.16500 119244.000000
6683 13268 1 0.16500 119244.000000
6683 13823 1 0.16500 119244.000000
6684 13269 1 0.16500 119244.000000
6684 15709 1 0.16500 119244.000000
6685 13270 1 0.16500 119244.000000
6685 15495 1 0.16500 119244.000000
6686 13270 1 0.16500 119244.000000
6686 14212 1 0.16500 119244.000000
6687 13271 1 0.16500 119244.000000
6687 13583 1 0.16500 119244.000000
6688 13272 1 0.16500 119244.000000
6688 16412 1 0.16500 119244.000000
6689 13272 1 0.16500 119244.000000
6689 14367 1 0.16500 119244.000000
6690 13272 1 0.16500 119244.000000
6690 14901 1 0.16500 119244.000000
6691 13273 1 0.16500 119244.000000
6691 13394 1 0.16500 119244.000000
6692 13273 1 0.16500 119244.000000
6692 15415 1 0.16500 119244.000000
6693 13273 1 0.16500 119244.000000
6693 16279 1 0.16500 119244.000000
6694 13273 1 0.16500 119244.000000
6694 14768 1 0.16500 119244.000000
6695 13274 1 0.16500 119244.000000
6695 21687 1 0.16500 119244.000000
6696 13274 1 0.16500 119244.000000
6696 13680 1 0.16500 119244.000000
6697 13274 1 0.16500 119244.000000
6697 13360 1 0.16500 119244.000000
6698 13274 1 0.16500 119244.000000
6698 22314 1 0.16500 119244.000000
6699 13275 1 0.16500 119244.000000
6699 14974 1 0.16500 119244.000000
6700 13275 1 0.16500 119244.000000
6700 15621 1 0.16500 119244.000000
6701 13275 1 0.16500 119244.000000
6701 14162 1 0.16500 119244.000000
6702 13275 1 0.16500 119244.000000
6702 13849 1 0.16500 119244.000000
6703 13276 1 0.16500 119244.000000
6703 14487 1 0.16500 119244.000000
6704 14487 1 0.16500 119244.000000
6704 16425 1 0.16500 119244.000000
6705 13277 1 0.16500 119244.000000
6705 15517 1 0.16500 119244.000000
6706 13277 1 0.16500 119244.000000
6706 13578 1 0.16500 119244.000000
6707 13278 1 0.16500 119244.000000
6707 14057 1 0.16500 119244.000000
6708 13278 1 0.16500 119244.000000
6708 14328 1 0.16500 119244.000000
6709 13279 1 0.16500 119244.000000
6709 14152 1 0.16500 119244.000000
6710 13279 1 0.16500 119244.000000
6710 15418 1 0.16500 119244.000000
6711 13280 1 0.16500 119244.000000
6711 15865 1 0.16500 119244.000000
6712 13281 1 0.16500 119244.000000
6712 15344 1 0.16500 119244.000000
6713 13281 1 0.16500 119244.000000
6713 14536 1 0.16500 119244.000000
6714 13281 1 0.16500 119244.000000
6714 16518 1 0.16500 119244.000000
6715 12739 1 0.16500 119244.000000
6715 13281 1 0.16500 119244.000000
6716 13282 1 0.16500 119244.000000
6716 13625 1 0.16500 119244.000000
6717 13283 1 0.16500 119244.000000
6717 14678 1 0.16500 119244.000000
6718 13283 1 0.16500 119244.000000
6718 15956 1 0.16500 119244.000000
6719 13283 1 0.16500 119244.000000
6719 14183 1 0.16500 119244.000000
6720 13283 1 0.16500 119244.000000
6720 13899 1 0.16500 119244.000000
6721 13284 1 0.16500 119244.000000
6721 21663 1 0.16500 119244.000000
6722 13284 1 0.16500 119244.000000
6722 15937 1 0.16500 119244.000000
6723 13284 1 0.16500 119244.000000
6723 14015 1 0.16500 119244.000000
6724 13285 1 0.16500 119244.000000
6724 15869 1 0.16500 119244.000000
6725 13286 1 0.16500 119244.000000
6725 14428 1 0.16500 119244.000000
6726 14524 1 0.16500 119244.000000
6726 21198 1 0.16500 119244.000000
6727 13287 1 0.16500 119244.000000
6727 15049 1 0.16500 119244.000000
6728 13287 1 0.16500 119244.000000
6728 15252 1 0.16500 119244.000000
6729 13288 1 0.16500 119244.000000
6729 15569 1 0.16500 119244.000000
6730 13288 1 0.16500 119244.000000
6730 14988 1 0.16500 119244.000000
6731 13288 1 0.16500 119244.000000
6731 16349 1 0.16500 119244.000000
6732 13289 1 0.16500 119244.000000
6732 13400 1 0.16500 119244.000000
6733 13289 1 0.16500 119244.000000
6733 15592 1 0.16500 119244.000000
6734 21834 1 0.16500 119244.000000
6734 22212 1 0.16500 119244.000000
6735 16477 1 0.16500 119244.000000
6735 22212 1 0.16500 119244.000000
6736 13290 1 0.16500 119244.000000
6736 14541 1 0.16500 119244.000000
6737 11863 1 0.16500 119244.000000
6737 17230 1 0.16500 119244.000000
6738 13291 1 0.16500 119244.000000
6738 15371 1 0.16500 119244.000000
6739 13291 1 0.16500 119244.000000
6739 14119 1 0.16500 119244.000000
6740 13291 1 0.16500 119244.000000
6740 14987 1 0.16500 119244.000000
6741 17664 1 0.16500 119244.000000
6741 21210 1 0.16500 119244.000000
6742 13940 1 0.16500 119244.000000
6742 21210 1 0.16500 119244.000000
6743 13292 1 0.16500 119244.000000
6743 14747 1 0.16500 119244.000000
6744 13292 1 0.16500 119244.000000
6744 15680 1 0.16500 119244.000000
6745 13292 1 0.16500 119244.000000
6745 15640 1 0.16500 119244.000000
6746 13293 1 0.16500 119244.000000
6746 14890 1 0.16500 119244.000000
6747 13293 1 0.16500 119244.000000
6747 13484 1 0.16500 119244.000000
6748 13294 1 0.16500 119244.000000
6748 16226 1 0.16500 119244.000000
6749 13294 1 0.16500 119244.000000
6749 13452 1 0.16500 119244.000000
6750 13294 1 0.16500 119244.000000
6750 13765 1 0.16500 119244.000000
6751 13294 1 0.16500 119244.000000
6751 16406 1 0.16500 119244.000000
6752 13295 1 0.16500 119244.000000
6752 16512 1 0.16500 119244.000000
6753 13295 1 0.16500 119244.000000
6753 13725 1 0.16500 119244.000000
6754 13295 1 0.16500 119244.000000
6754 13537 1 0.16500 119244.000000
6755 13295 1 0.16500 119244.000000
6755 13651 1 0.16500 119244.000000
6756 13296 1 0.16500 119244.000000
6756 14632 1 0.16500 119244.000000
6757 13296 1 0.16500 119244.000000
6757 14472 1 0.16500 119244.000000
6758 13297 1 0.16500 119244.000000
6758 15299 1 0.16500 119244.000000
6759 13298 1 0.16500 119244.000000
6759 14085 1 0.16500 119244.000000
6760 13298 1 0.16500 119244.000000
6760 15762 1 0.16500 119244.000000
6761 13298 1 0.16500 119244.000000
6761 13630 1 0.16500 119244.000000
6762 13534 1 0.16500 119244.000000
6762 15392 1 0.16500 119244.000000
6763 15374 1 0.16500 119244.000000
6763 15392 1 0.16500 119244.000000
6764 13299 1 0.16500 119244.000000
6764 16474 1 0.16500 119244.000000
6765 13574 1 0.16500 119244.000000
6765 15223 1 0.16500 119244.000000
6766 13300 1 0.16500 119244.000000
6766 16165 1 0.16500 119244.000000
6767 13300 1 0.16500 119244.000000
6767 15223 1 0.16500 119244.000000
6768 12318 1 0.16500 119244.000000
6768 13301 1 0.16500 119244.000000
6769 13301 1 0.16500 119244.000000
6769 14057 1 0.16500 119244.000000
6770 13301 1 0.16500 119244.000000
6770 14396 1 0.16500 119244.000000
6771 13302 1 0.16500 119244.000000
6771 15307 1 0.16500 119244.000000
6772 13302 1 0.16500 119244.000000
6772 15689 1 0.16500 119244.000000
6773 13302 1 0.16500 119244.000000
6773 15374 1 0.16500 119244.000000
6774 13303 1 0.16500 119244.000000
6774 14310 1 0.16500 119244.000000
6775 13303 1 0.16500 119244.000000
6775 16226 1 0.16500 119244.000000
6776 13303 1 0.16500 119244.000000
6776 16289 1 0.16500 119244.000000
6777 13304 1 0.16500 119244.000000
6777 14390 1 0.16500 119244.000000
6778 13168 1 0.16500 119244.000000
6778 16353 1 0.16500 119244.000000
6779 13304 1 0.16500 119244.000000
6779 14483 1 0.16500 119244.000000
6780 14185 1 0.16500 119244.000000
6780 15705 1 0.16500 119244.000000
6781 13305 1 0.16500 119244.000000
6781 14185 1 0.16500 119244.000000
6782 13305 1 0.16500 119244.000000
6782 16204 1 0.16500 119244.000000
6783 13306 1 0.16500 119244.000000
6783 15777 1 0.16500 119244.000000
6784 13306 1 0.16500 119244.000000
6784 15797 1 0.16500 119244.000000
6785 12038 1 0.16500 119244.000000
6785 15575 1 0.16500 119244.000000
6786 13307 1 0.16500 119244.000000
6786 14762 1 0.16500 119244.000000
6787 15575 1 0.16500 119244.000000
6787 16526 1 0.16500 119244.000000
6788 13308 1 0.16500 119244.000000
6788 13771 1 0.16500 119244.000000
6789 13308 1 0.16500 119244.000000
6789 13706 1 0.16500 119244.000000
6790 13308 1 0.16500 119244.000000
6790 14609 1 0.16500 119244.000000
6791 13309 1 0.16500 119244.000000
6791 13549 1 0.16500 119244.000000
6792 13309 1 0.16500 119244.000000
6792 15108 1 0.16500 119244.000000
6793 13309 1 0.16500 119244.000000
6793 14306 1 0.16500 119244.000000
6794 12345 1 0.16500 119244.000000
6794 14734 1 0.16500 119244.000000
6795 13310 1 0.16500 119244.000000
6795 15710 1 0.16500 119244.000000
6796 13311 1 0.16500 119244.000000
6796 16396 1 0.16500 119244.000000
6797 13311 1 0.16500 119244.000000
6797 14392 1 0.16500 119244.000000
6798 13312 1 0.16500 119244.000000
6798 14785 1 0.16500 119244.000000
6799 13312 1 0.16500 119244.000000
6799 15945 1 0.16500 119244.000000
6800 13312 1 0.16500 119244.000000
6800 13797 1 0.16500 119244.000000
6801 13313 1 0.16500 119244.000000
6801 16214 1 0.16500 119244.000000
6802 13313 1 0.16500 119244.000000
6802 13332 1 0.16500 119244.000000
6803 13313 1 0.16500 119244.000000
6803 15829 1 0.16500 119244.000000
6804 13314 1 0.16500 119244.000000
6804 16369 1 0.16500 119244.000000
6805 13314 1 0.16500 119244.000000
6805 16233 1 0.16500 119244.000000
6806 13314 1 0.16500 119244.000000
6806 15480 1 0.16500 119244.000000
6807 13315 1 0.16500 119244.000000
6807 15606 1 0.16500 119244.000000
6808 13315 1 0.16500 119244.000000
6808 13869 1 0.16500 119244.000000
6809 13315 1 0.16500 119244.000000
6809 16475 1 0.16500 119244.000000
6810 12836 1 0.16500 119244.000000
6810 13431 1 0.16500 119244.000000
6811 13317 1 0.16500 119244.000000
6811 16259 1 0.16500 119244.000000
6812 13318 1 0.16500 119244.000000
6812 15827 1 0.16500 119244.000000
6813 13319 1 0.16500 119244.000000
6813 14484 1 0.16500 119244.000000
6814 13319 1 0.16500 119244.000000
6814 15130 1 0.16500 119244.000000
6815 12712 1 0.16500 119244.000000
6815 13320 1 0.16500 119244.000000
6816 13320 1 0.16500 119244.000000
6816 15505 1 0.16500 119244.000000
6817 13321 1 0.16500 119244.000000
6817 15065 1 0.16500 119244.000000
6818 13321 1 0.16500 119244.000000
6818 15447 1 0.16500 119244.000000
6819 13322 1 0.16500 119244.000000
6819 14874 1 0.16500 119244.000000
6820 12990 1 0.16500 119244.000000
6820 13322 1 0.16500 119244.000000
6821 13322 1 0.16500 119244.000000
6821 16194 1 0.16500 119244.000000
6822 13227 1 0.16500 119244.000000
6822 13322 1 0.16500 119244.000000
6823 13323 1 0.16500 119244.000000
6823 16229 1 0.16500 119244.000000
6824 13323 1 0.16500 119244.000000
6824 16086 1 0.16500 119244.000000
6825 13325 1 0.16500 119244.000000
6825 14582 1 0.16500 119244.000000
6826 13325 1 0.16500 119244.000000
6826 15629 1 0.16500 119244.000000
6827 13325 1 0.16500 119244.000000
6827 16726 1 0.16500 119244.000000
6828 13326 1 0.16500 119244.000000
6828 15904 1 0.16500 119244.000000
6829 13326 1 0.16500 119244.000000
6829 16404 1 0.16500 119244.000000
6830 13326 1 0.16500 119244.000000
6830 15417 1 0.16500 119244.000000
6831 13327 1 0.16500 119244.000000
6831 13369 1 0.16500 119244.000000
6832 13327 1 0.16500 119244.000000
6832 14099 1 0.16500 119244.000000
6833 13328 1 0.16500 119244.000000
6833 15715 1 0.16500 119244.000000
6834 13328 1 0.16500 119244.000000
6834 13975 1 0.16500 119244.000000
6835 13329 1 0.16500 119244.000000
6835 18084 1 0.16500 119244.000000
6836 14553 1 0.16500 119244.000000
6836 21705 1 0.16500 119244.000000
6837 13329 1 0.16500 119244.000000
6837 14553 1 0.16500 119244.000000
6838 13330 1 0.16500 119244.000000
6838 16478 1 0.16500 119244.000000
6839 13330 1 0.16500 119244.000000
6839 14687 1 0.16500 119244.000000
6840 13331 1 0.16500 119244.000000
6840 14864 1 0.16500 119244.000000
6841 13332 1 0.16500 119244.000000
6841 14815 1 0.16500 119244.000000
6842 13332 1 0.16500 119244.000000
6842 14802 1 0.16500 119244.000000
6843 13333 1 0.16500 119244.000000
6843 22068 1 0.16500 119244.000000
6844 13333 1 0.16500 119244.000000
6844 13617 1 0.16500 119244.000000
6845 13334 1 0.16500 119244.000000
6845 14814 1 0.16500 119244.000000
6846 13334 1 0.16500 119244.000000
6846 14478 1 0.16500 119244.000000
6847 13334 1 0.16500 119244.000000
6847 15566 1 0.16500 119244.000000
6848 13334 1 0.16500 119244.000000
6848 15988 1 0.16500 119244.000000
6849 13335 1 0.16500 119244.000000
6849 15438 1 0.16500 119244.000000
6850 13335 1 0.16500 119244.000000
6850 14932 1 0.16500 119244.000000
6851 13335 1 0.16500 119244.000000
6851 13748 1 0.16500 119244.000000
6852 11565 1 0.16500 119244.000000
6852 13336 1 0.16500 119244.000000
6853 11968 1 0.16500 119244.000000
6853 13336 1 0.16500 119244.000000
6854 13337 1 0.16500 119244.000000
6854 15390 1 0.16500 119244.000000
6855 13337 1 0.16500 119244.000000
6855 15695 1 0.16500 119244.000000
6856 13338 1 0.16500 119244.000000
6856 15711 1 0.16500 119244.000000
6857 13338 1 0.16500 119244.000000
6857 14413 1 0.16500 119244.000000
6858 13338 1 0.16500 119244.000000
6858 15337 1 0.16500 119244.000000
6859 13338 1 0.16500 119244.000000
6859 15595 1 0.16500 119244.000000
6860 13339 1 0.16500 119244.000000
6860 15651 1 0.16500 119244.000000
6861 12410 1 0.16500 119244.000000
6861 16304 1 0.16500 119244.000000
6862 13339 1 0.16500 119244.000000
6862 14587 1 0.16500 119244.000000
6863 13340 1 0.16500 119244.000000
6863 16121 1 0.16500 119244.000000
6864 13341 1 0.16500 119244.000000
6864 15875 1 0.16500 119244.000000
6865 13341 1 0.16500 119244.000000
6865 15027 1 0.16500 119244.000000
6866 13341 1 0.16500 119244.000000
6866 16232 1 0.16500 119244.000000
6867 14138 1 0.16500 119244.000000
6867 16427 1 0.16500 119244.000000
6868 13342 1 0.16500 119244.000000
6868 21858 1 0.16500 119244.000000
6869 13342 1 0.16500 119244.000000
6869 14138 1 0.16500 119244.000000
6870 13343 1 0.16500 119244.000000
6870 14922 1 0.16500 119244.000000
6871 13343 1 0.16500 119244.000000
6871 14719 1 0.16500 119244.000000
6872 13344 1 0.16500 119244.000000
6872 15792 1 0.16500 119244.000000
6873 13344 1 0.16500 119244.000000
6873 14688 1 0.16500 119244.000000
6874 13344 1 0.16500 119244.000000
6874 16074 1 0.16500 119244.000000
6875 13345 1 0.16500 119244.000000
6875 14308 1 0.16500 119244.000000
6876 13345 1 0.16500 119244.000000
6876 14075 1 0.16500 119244.000000
6877 13345 1 0.16500 119244.000000
6877 15888 1 0.16500 119244.000000
6878 13346 1 0.16500 119244.000000
6878 14878 1 0.16500 119244.000000
6879 13346 1 0.16500 119244.000000
6879 15609 1 0.16500 119244.000000
6880 13347 1 0.16500 119244.000000
6880 16437 1 0.16500 119244.000000
6881 13347 1 0.16500 119244.000000
6881 14910 1 0.16500 119244.000000
6882 13347 1 0.16500 119244.000000
6882 13908 1 0.16500 119244.000000
6883 12078 1 0.16500 119244.000000
6883 13348 1 0.16500 119244.000000
6884 13348 1 0.16500 119244.000000
6884 14275 1 0.16500 119244.000000
6885 13349 1 0.16500 119244.000000
6885 15690 1 0.16500 119244.000000
6886 13349 1 0.16500 119244.000000
6886 16217 1 0.16500 119244.000000
6887 13350 1 0.16500 119244.000000
6887 13898 1 0.16500 119244.000000
6888 13351 1 0.16500 119244.000000
6888 13695 1 0.16500 119244.000000
6889 13352 1 0.16500 119244.000000
6889 21822 1 0.16500 119244.000000
6890 13352 1 0.16500 119244.000000
6890 13862 1 0.16500 119244.000000
6891 13353 1 0.16500 119244.000000
6891 15770 1 0.16500 119244.000000
6892 13353 1 0.16500 119244.000000
6892 17650 1 0.16500 119244.000000
6893 13354 1 0.16500 119244.000000
6893 14159 1 0.16500 119244.000000
6894 13354 1 0.16500 119244.000000
6894 14714 1 0.16500 119244.000000
6895 13355 1 0.16500 119244.000000
6895 14594 1 0.16500 119244.000000
6896 13355 1 0.16500 119244.000000
6896 15273 1 0.16500 119244.000000
6897 15273 1 0.16500 119244.000000
6897 15464 1 0.16500 119244.000000
6898 13355 1 0.16500 119244.000000
6898 15505 1 0.16500 119244.000000
6899 13356 1 0.16500 119244.000000
6899 21678 1 0.16500 119244.000000
6900 13356 1 0.16500 119244.000000
6900 15605 1 0.16500 119244.000000
6901 21234 1 0.16500 119244.000000
6901 22086 1 0.16500 119244.000000
6902 13357 1 0.16500 119244.000000
6902 14721 1 0.16500 119244.000000
6903 13357 1 0.16500 119244.000000
6903 14040 1 0.16500 119244.000000
6904 13357 1 0.16500 119244.000000
6904 15041 1 0.16500 119244.000000
6905 13358 1 0.16500 119244.000000
6905 13807 1 0.16500 119244.000000
6906 13359 1 0.16500 119244.000000
6906 13526 1 0.16500 119244.000000
6907 13359 1 0.16500 119244.000000
6907 15733 1 0.16500 119244.000000
6908 13359 1 0.16500 119244.000000
6908 15648 1 0.16500 119244.000000
6909 13359 1 0.16500 119244.000000
6909 22050 1 0.16500 119244.000000
6910 13360 1 0.16500 119244.000000
6910 14129 1 0.16500 119244.000000
6911 13361 1 0.16500 119244.000000
6911 15035 1 0.16500 119244.000000
6912 13361 1 0.16500 119244.000000
6912 13576 1 0.16500 119244.000000
6913 13362 1 0.16500 119244.000000
6913 22158 1 0.16500 119244.000000
6914 13362 1 0.16500 119244.000000
6914 14776 1 0.16500 119244.000000
6915 13362 1 0.16500 119244.000000
6915 22335 1 0.16500 119244.000000
6916 13363 1 0.16500 119244.000000
6916 13574 1 0.16500 119244.000000
6917 13363 1 0.16500 119244.000000
6917 14599 1 0.16500 119244.000000
6918 13364 1 0.16500 119244.000000
6918 14311 1 0.16500 119244.000000
6919 13364 1 0.16500 119244.000000
6919 14992 1 0.16500 119244.000000
6920 13364 1 0.16500 119244.000000
6920 15099 1 0.16500 119244.000000
6921 16280 1 0.16500 119244.000000
6921 21246 1 0.16500 119244.000000
6922 13365 1 0.16500 119244.000000
6922 13875 1 0.16500 119244.000000
6923 13365 1 0.16500 119244.000000
6923 14395 1 0.16500 119244.000000
6924 14155 1 0.16500 119244.000000
6924 14395 1 0.16500 119244.000000
6925 13366 1 0.16500 119244.000000
6925 13583 1 0.16500 119244.000000
6926 14900 1 0.16500 119244.000000
6926 16544 1 0.16500 119244.000000
6927 13367 1 0.16500 119244.000000
6927 15066 1 0.16500 119244.000000
6928 13367 1 0.16500 119244.000000
6928 21951 1 0.16500 119244.000000
6929 13367 1 0.16500 119244.000000
6929 15296 1 0.16500 119244.000000
6930 13368 1 0.16500 119244.000000
6930 13961 1 0.16500 119244.000000
6931 21258 1 0.16500 119244.000000
6931 22263 1 0.16500 119244.000000
6932 21258 1 0.16500 119244.000000
6932 21684 1 0.16500 119244.000000
6933 13369 1 0.16500 119244.000000
6933 14074 1 0.16500 119244.000000
6934 13369 1 0.16500 119244.000000
6934 15410 1 0.16500 119244.000000
6935 13370 1 0.16500 119244.000000
6935 14112 1 0.16500 119244.000000
6936 13370 1 0.16500 119244.000000
6936 15037 1 0.16500 119244.000000
6937 13370 1 0.16500 119244.000000
6937 15370 1 0.16500 119244.000000
6938 13371 1 0.16500 119244.000000
6938 15373 1 0.16500 119244.000000
6939 13371 1 0.16500 119244.000000
6939 18238 1 0.16500 119244.000000
6940 13371 1 0.16500 119244.000000
6940 14017 1 0.16500 119244.000000
6941 13372 1 0.16500 119244.000000
6941 15668 1 0.16500 119244.000000
6942 13372 1 0.16500 119244.000000
6942 15613 1 0.16500 119244.000000
6943 13372 1 0.16500 119244.000000
6943 13651 1 0.16500 119244.000000
6944 13373 1 0.16500 119244.000000
6944 15954 1 0.16500 119244.000000
6945 13373 1 0.16500 119244.000000
6945 14754 1 0.16500 119244.000000
6946 13374 1 0.16500 119244.000000
6946 14152 1 0.16500 119244.000000
6947 13374 1 0.16500 119244.000000
6947 15884 1 0.16500 119244.000000
6948 14429 1 0.16500 119244.000000
6948 14891 1 0.16500 119244.000000
6949 14891 1 0.16500 119244.000000
6949 15067 1 0.16500 119244.000000
6950 14891 1 0.16500 119244.000000
6950 21270 1 0.16500 119244.000000
6951 13375 1 0.16500 119244.000000
6951 15568 1 0.16500 119244.000000
6952 13375 1 0.16500 119244.000000
6952 13616 1 0.16500 119244.000000
6953 13375 1 0.16500 119244.000000
6953 15652 1 0.16500 119244.000000
6954 13375 1 0.16500 119244.000000
6954 15567 1 0.16500 119244.000000
6955 13376 1 0.16500 119244.000000
6955 16365 1 0.16500 119244.000000
6956 13376 1 0.16500 119244.000000
6956 14799 1 0.16500 119244.000000
6957 13376 1 0.16500 119244.000000
6957 13712 1 0.16500 119244.000000
6958 13377 1 0.16500 119244.000000
6958 15930 1 0.16500 119244.000000
6959 12461 1 0.16500 119244.000000
6959 16508 1 0.16500 119244.000000
6960 13378 1 0.16500 119244.000000
6960 14293 1 0.16500 119244.000000
6961 13352 1 0.16500 119244.000000
6961 13379 1 0.16500 119244.000000
6962 13380 1 0.16500 119244.000000
6962 14721 1 0.16500 119244.000000
6963 13380 1 0.16500 119244.000000
6963 13697 1 0.16500 119244.000000
6964 13697 1 0.16500 119244.000000
6964 14477 1 0.16500 119244.000000
6965 13613 1 0.16500 119244.000000
6965 15172 1 0.16500 119244.000000
6966 13381 1 0.16500 119244.000000
6966 14978 1 0.16500 119244.000000
6967 13381 1 0.16500 119244.000000
6967 15172 1 0.16500 119244.000000
6968 13382 1 0.16500 119244.000000
6968 14835 1 0.16500 119244.000000
6969 14835 1 0.16500 119244.000000
6969 15286 1 0.16500 119244.000000
6970 13383 1 0.16500 119244.000000
6970 14787 1 0.16500 119244.000000
6971 12350 1 0.16500 119244.000000
6971 13606 1 0.16500 119244.000000
6972 13384 1 0.16500 119244.000000
6972 14471 1 0.16500 119244.000000
6973 13384 1 0.16500 119244.000000
6973 14276 1 0.16500 119244.000000
6974 13384 1 0.16500 119244.000000
6974 15869 1 0.16500 119244.000000
6975 13385 1 0.16500 119244.000000
6975 15266 1 0.16500 119244.000000
6976 13385 1 0.16500 119244.000000
6976 14589 1 0.16500 119244.000000
6977 13385 1 0.16500 119244.000000
6977 13610 1 0.16500 119244.000000
6978 14693 1 0.16500 119244.000000
6978 21282 1 0.16500 119244.000000
6979 13386 1 0.16500 119244.000000
6979 15929 1 0.16500 119244.000000
6980 13386 1 0.16500 119244.000000
6980 14470 1 0.16500 119244.000000
6981 13386 1 0.16500 119244.000000
6981 15371 1 0.16500 119244.000000
6982 13387 1 0.16500 119244.000000
6982 14991 1 0.16500 119244.000000
6983 13387 1 0.16500 119244.000000
6983 15214 1 0.16500 119244.000000
6984 13388 1 0.16500 119244.000000
6984 14518 1 0.16500 119244.000000
6985 13388 1 0.16500 119244.000000
6985 15239 1 0.16500 119244.000000
6986 13388 1 0.16500 119244.000000
6986 13721 1 0.16500 119244.000000
6987 13389 1 0.16500 119244.000000
6987 22233 1 0.16500 119244.000000
6988 13389 1 0.16500 119244.000000
6988 22044 1 0.16500 119244.000000
6989 13390 1 0.16500 119244.000000
6989 13611 1 0.16500 119244.000000
6990 13390 1 0.16500 119244.000000
6990 14984 1 0.16500 119244.000000
6991 13391 1 0.16500 119244.000000
6991 15543 1 0.16500 119244.000000
6992 13391 1 0.16500 119244.000000
6992 16172 1 0.16500 119244.000000
6993 13392 1 0.16500 119244.000000
6993 16018 1 0.16500 119244.000000
6994 13392 1 0.16500 119244.000000
6994 16265 1 0.16500 119244.000000
6995 13393 1 0.16500 119244.000000
6995 13903 1 0.16500 119244.000000
6996 13393 1 0.16500 119244.000000
6996 14474 1 0.16500 119244.000000
6997 13394 1 0.16500 119244.000000
6997 22134 1 0.16500 119244.000000
6998 13395 1 0.16500 119244.000000
6998 14020 1 0.16500 119244.000000
6999 13395 1 0.16500 119244.000000
6999 13630 1 0.16500 119244.000000
7000 13396 1 0.16500 119244.000000
7000 15700 1 0.16500 119244.000000
7001 13397 1 0.16500 119244.000000
7001 13838 1 0.16500 119244.000000
7002 11534 1 0.16500 119244.000000
7002 13398 1 0.16500 119244.000000
7003 13399 1 0.16500 119244.000000
7003 15655 1 0.16500 119244.000000
7004 13399 1 0.16500 119244.000000
7004 16143 1 0.16500 119244.000000
7005 13399 1 0.16500 119244.000000
7005 15406 1 0.16500 119244.000000
7006 13400 1 0.16500 119244.000000
7006 15442 1 0.16500 119244.000000
7007 13401 1 0.16500 119244.000000
7007 15105 1 0.16500 119244.000000
7008 13401 1 0.16500 119244.000000
7008 22317 1 0.16500 119244.000000
7009 13401 1 0.16500 119244.000000
7009 14705 1 0.16500 119244.000000
7010 13402 1 0.16500 119244.000000
7010 14342 1 0.16500 119244.000000
7011 13402 1 0.16500 119244.000000
7011 15609 1 0.16500 119244.000000
7012 13402 1 0.16500 119244.000000
7012 14895 1 0.16500 119244.000000
7013 13403 1 0.16500 119244.000000
7013 15022 1 0.16500 119244.000000
7014 13403 1 0.16500 119244.000000
7014 14358 1 0.16500 119244.000000
7015 13403 1 0.16500 119244.000000
7015 16014 1 0.16500 119244.000000
7016 13403 1 0.16500 119244.000000
7016 15584 1 0.16500 119244.000000
7017 13404 1 0.16500 119244.000000
7017 15563 1 0.16500 119244.000000
7018 13404 1 0.16500 119244.000000
7018 16332 1 0.16500 119244.000000
7019 14626 1 0.16500 119244.000000
7019 21306 1 0.16500 119244.000000
7020 17524 1 0.16500 119244.000000
7020 21306 1 0.16500 119244.000000
7021 13405 1 0.16500 119244.000000
7021 15896 1 0.16500 119244.000000
7022 13405 1 0.16500 119244.000000
7022 13549 1 0.16500 119244.000000
7023 13405 1 0.16500 119244.000000
7023 16340 1 0.16500 119244.000000
7024 13406 1 0.16500 119244.000000
7024 15684 1 0.16500 119244.000000
7025 13406 1 0.16500 119244.000000
7025 14129 1 0.16500 119244.000000
7026 13406 1 0.16500 119244.000000
7026 15535 1 0.16500 119244.000000
7027 13406 1 0.16500 119244.000000
7027 15836 1 0.16500 119244.000000
7028 13407 1 0.16500 119244.000000
7028 13898 1 0.16500 119244.000000
7029 13407 1 0.16500 119244.000000
7029 15018 1 0.16500 119244.000000
7030 13407 1 0.16500 119244.000000
7030 16289 1 0.16500 119244.000000
7031 13407 1 0.16500 119244.000000
7031 13452 1 0.16500 119244.000000
7032 13408 1 0.16500 119244.000000
7032 15737 1 0.16500 119244.000000
7033 13408 1 0.16500 119244.000000
7033 15877 1 0.16500 119244.000000
7034 13408 1 0.16500 119244.000000
7034 14461 1 0.16500 119244.000000
7035 13409 1 0.16500 119244.000000
7035 14101 1 0.16500 119244.000000
7036 13409 1 0.16500 119244.000000
7036 15207 1 0.16500 119244.000000
7037 13409 1 0.16500 119244.000000
7037 22347 1 0.16500 119244.000000
7038 13410 1 0.16500 119244.000000
7038 16126 1 0.16500 119244.000000
7039 13410 1 0.16500 119244.000000
7039 15132 1 0.16500 119244.000000
7040 13410 1 0.16500 119244.000000
7040 14404 1 0.16500 119244.000000
7041 13410 1 0.16500 119244.000000
7041 16186 1 0.16500 119244.000000
7042 13411 1 0.16500 119244.000000
7042 15313 1 0.16500 119244.000000
7043 13411 1 0.16500 119244.000000
7043 15200 1 0.16500 119244.000000
7044 13412 1 0.16500 119244.000000
7044 14415 1 0.16500 119244.000000
7045 13412 1 0.16500 119244.000000
7045 14290 1 0.16500 119244.000000
7046 13412 1 0.16500 119244.000000
7046 15222 1 0.16500 119244.000000
7047 13413 1 0.16500 119244.000000
7047 15950 1 0.16500 119244.000000
7048 13413 1 0.16500 119244.000000
7048 13806 1 0.16500 119244.000000
7049 13413 1 0.16500 119244.000000
7049 14271 1 0.16500 119244.000000
7050 13413 1 0.16500 119244.000000
7050 14792 1 0.16500 119244.000000
7051 13414 1 0.16500 119244.000000
7051 14995 1 0.16500 119244.000000
7052 15990 1 0.16500 119244.000000
7052 21330 1 0.16500 119244.000000
7053 13415 1 0.16500 119244.000000
7053 14228 1 0.16500 119244.000000
7054 13415 1 0.16500 119244.000000
7054 13685 1 0.16500 119244.000000
7055 13416 1 0.16500 119244.000000
7055 16454 1 0.16500 119244.000000
7056 13417 1 0.16500 119244.000000
7056 16475 1 0.16500 119244.000000
7057 13417 1 0.16500 119244.000000
7057 14247 1 0.16500 119244.000000
7058 13418 1 0.16500 119244.000000
7058 14016 1 0.16500 119244.000000
7059 13418 1 0.16500 119244.000000
7059 14221 1 0.16500 119244.000000
7060 13418 1 0.16500 119244.000000
7060 16006 1 0.16500 119244.000000
7061 13419 1 0.16500 119244.000000
7061 14307 1 0.16500 119244.000000
7062 13419 1 0.16500 119244.000000
7062 15192 1 0.16500 119244.000000
7063 14307 1 0.16500 119244.000000
7063 15664 1 0.16500 119244.000000
7064 13419 1 0.16500 119244.000000
7064 16950 1 0.16500 119244.000000
7065 15422 1 0.16500 119244.000000
7065 21342 1 0.16500 119244.000000
7066 21342 1 0.16500 119244.000000
7066 21513 1 0.16500 119244.000000
7067 13420 1 0.16500 119244.000000
7067 14489 1 0.16500 119244.000000
7068 13420 1 0.16500 119244.000000
7068 15702 1 0.16500 119244.000000
7069 13420 1 0.16500 119244.000000
7069 14978 1 0.16500 119244.000000
7070 13420 1 0.16500 119244.000000
7070 14302 1 0.16500 119244.000000
7071 13421 1 0.16500 119244.000000
7071 15778 1 0.16500 119244.000000
7072 13421 1 0.16500 119244.000000
7072 16291 1 0.16500 119244.000000
7073 13421 1 0.16500 119244.000000
7073 17608 1 0.16500 119244.000000
7074 13422 1 0.16500 119244.000000
7074 14964 1 0.16500 119244.000000
7075 13422 1 0.16500 119244.000000
7075 14051 1 0.16500 119244.000000
7076 13422 1 0.16500 119244.000000
7076 15684 1 0.16500 119244.000000
7077 13423 1 0.16500 119244.000000
7077 14818 1 0.16500 119244.000000
7078 13423 1 0.16500 119244.000000
7078 15376 1 0.16500 119244.000000
7079 13424 1 0.16500 119244.000000
7079 15868 1 0.16500 119244.000000
7080 13424 1 0.16500 119244.000000
7080 14578 1 0.16500 119244.000000
7081 13424 1 0.16500 119244.000000
7081 15271 1 0.16500 119244.000000
7082 14578 1 0.16500 119244.000000
7082 16058 1 0.16500 119244.000000
7083 13425 1 0.16500 119244.000000
7083 14535 1 0.16500 119244.000000
7084 13425 1 0.16500 119244.000000
7084 13586 1 0.16500 119244.000000
7085 12405 1 0.16500 119244.000000
7085 13426 1 0.16500 119244.000000
7086 13426 1 0.16500 119244.000000
7086 14843 1 0.16500 119244.000000
7087 13427 1 0.16500 119244.000000
7087 14574 1 0.16500 119244.000000
7088 13427 1 0.16500 119244.000000
7088 14143 1 0.16500 119244.000000
7089 13427 1 0.16500 119244.000000
7089 14412 1 0.16500 119244.000000
7090 13428 1 0.16500 119244.000000
7090 15946 1 0.16500 119244.000000
7091 13546 1 0.16500 119244.000000
7091 15992 1 0.16500 119244.000000
7092 13428 1 0.16500 119244.000000
7092 15992 1 0.16500 119244.000000
7093 13428 1 0.16500 119244.000000
7093 13567 1 0.16500 119244.000000
7094 13429 1 0.16500 119244.000000
7094 15626 1 0.16500 119244.000000
7095 13430 1 0.16500 119244.000000
7095 16098 1 0.16500 119244.000000
7096 13430 1 0.16500 119244.000000
7096 15742 1 0.16500 119244.000000
7097 13430 1 0.16500 119244.000000
7097 16241 1 0.16500 119244.000000
7098 14582 1 0.16500 119244.000000
7098 21354 1 0.16500 119244.000000
7099 13431 1 0.16500 119244.000000
7099 21585 1 0.16500 119244.000000
7100 13431 1 0.16500 119244.000000
7100 14577 1 0.16500 119244.000000
7101 13432 1 0.16500 119244.000000
7101 14858 1 0.16500 119244.000000
7102 13432 1 0.16500 119244.000000
7102 14640 1 0.16500 119244.000000
7103 13433 1 0.16500 119244.000000
7103 13735 1 0.16500 119244.000000
7104 13433 1 0.16500 119244.000000
7104 14137 1 0.16500 119244.000000
7105 13434 1 0.16500 119244.000000
7105 16204 1 0.16500 119244.000000
7106 13434 1 0.16500 119244.000000
7106 14394 1 0.16500 119244.000000
7107 13434 1 0.16500 119244.000000
7107 15182 1 0.16500 119244.000000
7108 13435 1 0.16500 119244.000000
7108 15998 1 0.16500 119244.000000
7109 13435 1 0.16500 119244.000000
7109 14889 1 0.16500 119244.000000
7110 13435 1 0.16500 119244.000000
7110 15057 1 0.16500 119244.000000
7111 13435 1 0.16500 119244.000000
7111 16117 1 0.16500 119244.000000
7112 13436 1 0.16500 119244.000000
7112 16499 1 0.16500 119244.000000
7113 13436 1 0.16500 119244.000000
7113 18210 1 0.16500 119244.000000
7114 13436 1 0.16500 119244.000000
7114 14890 1 0.16500 119244.000000
7115 13437 1 0.16500 119244.000000
7115 15140 1 0.16500 119244.000000
7116 13437 1 0.16500 119244.000000
7116 15813 1 0.16500 119244.000000
7117 13437 1 0.16500 119244.000000
7117 15400 1 0.16500 119244.000000
7118 13438 1 0.16500 119244.000000
7118 14656 1 0.16500 119244.000000
7119 13438 1 0.16500 119244.000000
7119 15117 1 0.16500 119244.000000
7120 13438 1 0.16500 119244.000000
7120 14923 1 0.16500 119244.000000
7121 13439 1 0.16500 119244.000000
7121 15655 1 0.16500 119244.000000
7122 13439 1 0.16500 119244.000000
7122 13922 1 0.16500 119244.000000
7123 13439 1 0.16500 119244.000000
7123 13474 1 0.16500 119244.000000
7124 13440 1 0.16500 119244.000000
7124 14628 1 0.16500 119244.000000
7125 13440 1 0.16500 119244.000000
7125 15832 1 0.16500 119244.000000
7126 14628 1 0.16500 119244.000000
7126 21816 1 0.16500 119244.000000
7127 13441 1 0.16500 119244.000000
7127 22164 1 0.16500 119244.000000
7128 13441 1 0.16500 119244.000000
7128 13626 1 0.16500 119244.000000
7129 13441 1 0.16500 119244.000000
7129 13517 1 0.16500 119244.000000
7130 13441 1 0.16500 119244.000000
7130 16046 1 0.16500 119244.000000
7131 13442 1 0.16500 119244.000000
7131 15844 1 0.16500 119244.000000
7132 14741 1 0.16500 119244.000000
7132 15844 1 0.16500 119244.000000
7133 13443 1 0.16500 119244.000000
7133 14681 1 0.16500 119244.000000
7134 13443 1 0.16500 119244.000000
7134 16368 1 0.16500 119244.000000
7135 13444 1 0.16500 119244.000000
7135 13634 1 0.16500 119244.000000
7136 13444 1 0.16500 119244.000000
7136 13772 1 0.16500 119244.000000
7137 13444 1 0.16500 119244.000000
7137 15338 1 0.16500 119244.000000
7138 13445 1 0.16500 119244.000000
7138 14815 1 0.16500 119244.000000
7139 13445 1 0.16500 119244.000000
7139 14660 1 0.16500 119244.000000
7140 13445 1 0.16500 119244.000000
7140 15960 1 0.16500 119244.000000
7141 21378 1 0.16500 119244.000000
7141 21999 1 0.16500 119244.000000
7142 21378 1 0.16500 119244.000000
7142 21747 1 0.16500 119244.000000
7143 13446 1 0.16500 119244.000000
7143 13595 1 0.16500 119244.000000
7144 12844 1 0.16500 119244.000000
7144 14376 1 0.16500 119244.000000
7145 13446 1 0.16500 119244.000000
7145 15029 1 0.16500 119244.000000
7146 13447 1 0.16500 119244.000000
7146 14660 1 0.16500 119244.000000
7147 13447 1 0.16500 119244.000000
7147 15814 1 0.16500 119244.000000
7148 13447 1 0.16500 119244.000000
7148 15934 1 0.16500 119244.000000
7149 13448 1 0.16500 119244.000000
7149 14918 1 0.16500 119244.000000
7150 13448 1 0.16500 119244.000000
7150 16371 1 0.16500 119244.000000
7151 13448 1 0.16500 119244.000000
7151 13515 1 0.16500 119244.000000
7152 13449 1 0.16500 119244.000000
7152 15055 1 0.16500 119244.000000
7153 13985 1 0.16500 119244.000000
7153 21390 1 0.16500 119244.000000
7154 16295 1 0.16500 119244.000000
7154 21390 1 0.16500 119244.000000
7155 13450 1 0.16500 119244.000000
7155 15988 1 0.16500 119244.000000
7156 13450 1 0.16500 119244.000000
7156 15208 1 0.16500 119244.000000
7157 13450 1 0.16500 119244.000000
7157 15687 1 0.16500 119244.000000
7158 13451 1 0.16500 119244.000000
7158 14451 1 0.16500 119244.000000
7159 13451 1 0.16500 119244.000000
7159 14192 1 0.16500 119244.000000
7160 13451 1 0.16500 119244.000000
7160 15951 1 0.16500 119244.000000
7161 13451 1 0.16500 119244.000000
7161 15249 1 0.16500 119244.000000
7162 13452 1 0.16500 119244.000000
7162 13750 1 0.16500 119244.000000
7163 13452 1 0.16500 119244.000000
7163 15945 1 0.16500 119244.000000
7164 13453 1 0.16500 119244.000000
7164 15869 1 0.16500 119244.000000
7165 13453 1 0.16500 119244.000000
7165 14435 1 0.16500 119244.000000
7166 13453 1 0.16500 119244.000000
7166 14365 1 0.16500 119244.000000
7167 13454 1 0.16500 119244.000000
7167 14881 1 0.16500 119244.000000
7168 13455 1 0.16500 119244.000000
7168 14590 1 0.16500 119244.000000
7169 13455 1 0.16500 119244.000000
7169 13717 1 0.16500 119244.000000
7170 13455 1 0.16500 119244.000000
7170 15269 1 0.16500 119244.000000
7171 13456 1 0.16500 119244.000000
7171 15425 1 0.16500 119244.000000
7172 13457 1 0.16500 119244.000000
7172 15391 1 0.16500 119244.000000
7173 13457 1 0.16500 119244.000000
7173 13742 1 0.16500 119244.000000
7174 13457 1 0.16500 119244.000000
7174 15756 1 0.16500 119244.000000
7175 13458 1 0.16500 119244.000000
7175 16411 1 0.16500 119244.000000
7176 13458 1 0.16500 119244.000000
7176 14816 1 0.16500 119244.000000
7177 11876 1 0.16500 119244.000000
7177 13458 1 0.16500 119244.000000
7178 13459 1 0.16500 119244.000000
7178 13726 1 0.16500 119244.000000
7179 13459 1 0.16500 119244.000000
7179 15476 1 0.16500 119244.000000
7180 21402 1 0.16500 119244.000000
7180 21753 1 0.16500 119244.000000
7181 13460 1 0.16500 119244.000000
7181 13572 1 0.16500 119244.000000
7182 13460 1 0.16500 119244.000000
7182 13813 1 0.16500 119244.000000
7183 13461 1 0.16500 119244.000000
7183 15727 1 0.16500 119244.000000
7184 13462 1 0.16500 119244.000000
7184 14931 1 0.16500 119244.000000
7185 13462 1 0.16500 119244.000000
7185 14010 1 0.16500 119244.000000
7186 13463 1 0.16500 119244.000000
7186 13724 1 0.16500 119244.000000
7187 13463 1 0.16500 119244.000000
7187 15576 1 0.16500 119244.000000
7188 13463 1 0.16500 119244.000000
7188 13839 1 0.16500 119244.000000
7189 13463 1 0.16500 119244.000000
7189 13637 1 0.16500 119244.000000
7190 13464 1 0.16500 119244.000000
7190 16128 1 0.16500 119244.000000
7191 13464 1 0.16500 119244.000000
7191 13901 1 0.16500 119244.000000
7192 13464 1 0.16500 119244.000000
7192 16239 1 0.16500 119244.000000
7193 13464 1 0.16500 119244.000000
7193 13490 1 0.16500 119244.000000
7194 12976 1 0.16500 119244.000000
7194 13465 1 0.16500 119244.000000
7195 13465 1 0.16500 119244.000000
7195 15730 1 0.16500 119244.000000
7196 13466 1 0.16500 119244.000000
7196 14587 1 0.16500 119244.000000
7197 13466 1 0.16500 119244.000000
7197 16196 1 0.16500 119244.000000
7198 18546 1 0.16500 119244.000000
7198 21414 1 0.16500 119244.000000
7199 13467 1 0.16500 119244.000000
7199 15885 1 0.16500 119244.000000
7200 13467 1 0.16500 119244.000000
7200 21786 1 0.16500 119244.000000
7201 13468 1 0.16500 119244.000000
7201 13755 1 0.16500 119244.000000
7202 13468 1 0.16500 119244.000000
7202 14326 1 0.16500 119244.000000
7203 13469 1 0.16500 119244.000000
7203 15513 1 0.16500 119244.000000
7204 13469 1 0.16500 119244.000000
7204 14626 1 0.16500 119244.000000
7205 13470 1 0.16500 119244.000000
7205 14988 1 0.16500 119244.000000
7206 13470 1 0.16500 119244.000000
7206 14343 1 0.16500 119244.000000
7207 13471 1 0.16500 119244.000000
7207 15552 1 0.16500 119244.000000
7208 13471 1 0.16500 119244.000000
7208 13801 1 0.16500 119244.000000
7209 13472 1 0.16500 119244.000000
7209 21546 1 0.16500 119244.000000
7210 13474 1 0.16500 119244.000000
7210 15447 1 0.16500 119244.000000
7211 13474 1 0.16500 119244.000000
7211 16037 1 0.16500 119244.000000
7212 13474 1 0.16500 119244.000000
7212 13668 1 0.16500 119244.000000
7213 13475 1 0.16500 119244.000000
7213 13880 1 0.16500 119244.000000
7214 13476 1 0.16500 119244.000000
7214 14224 1 0.16500 119244.000000
7215 13476 1 0.16500 119244.000000
7215 14127 1 0.16500 119244.000000
7216 14224 1 0.16500 119244.000000
7216 16246 1 0.16500 119244.000000
7217 13477 1 0.16500 119244.000000
7217 21645 1 0.16500 119244.000000
7218 13478 1 0.16500 119244.000000
7218 21690 1 0.16500 119244.000000
7219 13478 1 0.16500 119244.000000
7219 21651 1 0.16500 119244.000000
7220 13478 1 0.16500 119244.000000
7220 22101 1 0.16500 119244.000000
7221 13478 1 0.16500 119244.000000
7221 15632 1 0.16500 119244.000000
7222 15832 1 0.16500 119244.000000
7222 21426 1 0.16500 119244.000000
7223 13505 1 0.16500 119244.000000
7223 21426 1 0.16500 119244.000000
7224 14184 1 0.16500 119244.000000
7224 14261 1 0.16500 119244.000000
7225 13479 1 0.16500 119244.000000
7225 14261 1 0.16500 119244.000000
7226 13479 1 0.16500 119244.000000
7226 16336 1 0.16500 119244.000000
7227 13480 1 0.16500 119244.000000
7227 14392 1 0.16500 119244.000000
7228 13481 1 0.16500 119244.000000
7228 15849 1 0.16500 119244.000000
7229 13481 1 0.16500 119244.000000
7229 16218 1 0.16500 119244.000000
7230 13481 1 0.16500 119244.000000
7230 14774 1 0.16500 119244.000000
7231 13481 1 0.16500 119244.000000
7231 13517 1 0.16500 119244.000000
7232 13482 1 0.16500 119244.000000
7232 14894 1 0.16500 119244.000000
7233 13174 1 0.16500 119244.000000
7233 13482 1 0.16500 119244.000000
7234 13482 1 0.16500 119244.000000
7234 14542 1 0.16500 119244.000000
7235 13483 1 0.16500 119244.000000
7235 14402 1 0.16500 119244.000000
7236 13483 1 0.16500 119244.000000
7236 14775 1 0.16500 119244.000000
7237 14915 1 0.16500 119244.000000
7237 15915 1 0.16500 119244.000000
7238 13484 1 0.16500 119244.000000
7238 14698 1 0.16500 119244.000000
7239 13484 1 0.16500 119244.000000
7239 13786 1 0.16500 119244.000000
7240 16048 1 0.16500 119244.000000
7240 16457 1 0.16500 119244.000000
7241 13485 1 0.16500 119244.000000
7241 16048 1 0.16500 119244.000000
7242 13485 1 0.16500 119244.000000
7242 16489 1 0.16500 119244.000000
7243 13486 1 0.16500 119244.000000
7243 14565 1 0.16500 119244.000000
7244 13486 1 0.16500 119244.000000
7244 16174 1 0.16500 119244.000000
7245 13487 1 0.16500 119244.000000
7245 16255 1 0.16500 119244.000000
7246 13487 1 0.16500 119244.000000
7246 14361 1 0.16500 119244.000000
7247 13488 1 0.16500 119244.000000
7247 13542 1 0.16500 119244.000000
7248 13488 1 0.16500 119244.000000
7248 15161 1 0.16500 119244.000000
7249 13488 1 0.16500 119244.000000
7249 13567 1 0.16500 119244.000000
7250 13488 1 0.16500 119244.000000
7250 21915 1 0.16500 119244.000000
7251 13489 1 0.16500 119244.000000
7251 14077 1 0.16500 119244.000000
7252 13866 1 0.16500 119244.000000
7252 14077 1 0.16500 119244.000000
7253 13490 1 0.16500 119244.000000
7253 13561 1 0.16500 119244.000000
7254 13491 1 0.16500 119244.000000
7254 13849 1 0.16500 119244.000000
7255 13492 1 0.16500 119244.000000
7255 13978 1 0.16500 119244.000000
7256 13492 1 0.16500 119244.000000
7256 13691 1 0.16500 119244.000000
7257 15914 1 0.16500 119244.000000
7257 21438 1 0.16500 119244.000000
7258 13493 1 0.16500 119244.000000
7258 16415 1 0.16500 119244.000000
7259 13493 1 0.16500 119244.000000
7259 15781 1 0.16500 119244.000000
7260 13494 1 0.16500 119244.000000
7260 14637 1 0.16500 119244.000000
7261 13494 1 0.16500 119244.000000
7261 15341 1 0.16500 119244.000000
7262 13495 1 0.16500 119244.000000
7262 14739 1 0.16500 119244.000000
7263 13495 1 0.16500 119244.000000
7263 15937 1 0.16500 119244.000000
7264 13495 1 0.16500 119244.000000
7264 22185 1 0.16500 119244.000000
7265 12034 1 0.16500 119244.000000
7265 13496 1 0.16500 119244.000000
7266 13496 1 0.16500 119244.000000
7266 14262 1 0.16500 119244.000000
7267 13497 1 0.16500 119244.000000
7267 15092 1 0.16500 119244.000000
7268 13504 1 0.16500 119244.000000
7268 21450 1 0.16500 119244.000000
7269 14317 1 0.16500 119244.000000
7269 15183 1 0.16500 119244.000000
7270 13499 1 0.16500 119244.000000
7270 15183 1 0.16500 119244.000000
7271 13500 1 0.16500 119244.000000
7271 13586 1 0.16500 119244.000000
7272 13500 1 0.16500 119244.000000
7272 15317 1 0.16500 119244.000000
7273 13500 1 0.16500 119244.000000
7273 14551 1 0.16500 119244.000000
7274 13500 1 0.16500 119244.000000
7274 15385 1 0.16500 119244.000000
7275 13501 1 0.16500 119244.000000
7275 14339 1 0.16500 119244.000000
7276 13501 1 0.16500 119244.000000
7276 15701 1 0.16500 119244.000000
7277 14470 1 0.16500 119244.000000
7277 16000 1 0.16500 119244.000000
7278 13502 1 0.16500 119244.000000
7278 21801 1 0.16500 119244.000000
7279 13502 1 0.16500 119244.000000
7279 16000 1 0.16500 119244.000000
7280 13502 1 0.16500 119244.000000
7280 16250 1 0.16500 119244.000000
7281 13503 1 0.16500 119244.000000
7281 15380 1 0.16500 119244.000000
7282 15026 1 0.16500 119244.000000
7282 15380 1 0.16500 119244.000000
7283 13081 1 0.16500 119244.000000
7283 13524 1 0.16500 119244.000000
7284 13504 1 0.16500 119244.000000
7284 13531 1 0.16500 119244.000000
7285 13504 1 0.16500 119244.000000
7285 15355 1 0.16500 119244.000000
7286 13504 1 0.16500 119244.000000
7286 16894 1 0.16500 119244.000000
7287 13505 1 0.16500 119244.000000
7287 22128 1 0.16500 119244.000000
7288 21717 1 0.16500 119244.000000
7288 22128 1 0.16500 119244.000000
7289 13506 1 0.16500 119244.000000
7289 15670 1 0.16500 119244.000000
7290 13506 1 0.16500 119244.000000
7290 15095 1 0.16500 119244.000000
7291 15670 1 0.16500 119244.000000
7291 22227 1 0.16500 119244.000000
7292 13507 1 0.16500 119244.000000
7292 14409 1 0.16500 119244.000000
7293 13507 1 0.16500 119244.000000
7293 15496 1 0.16500 119244.000000
7294 13507 1 0.16500 119244.000000
7294 16023 1 0.16500 119244.000000
7295 13508 1 0.16500 119244.000000
7295 14499 1 0.16500 119244.000000
7296 13508 1 0.16500 119244.000000
7296 14704 1 0.16500 119244.000000
7297 13508 1 0.16500 119244.000000
7297 14116 1 0.16500 119244.000000
7298 13510 1 0.16500 119244.000000
7298 14028 1 0.16500 119244.000000
7299 13510 1 0.16500 119244.000000
7299 14789 1 0.16500 119244.000000
7300 13510 1 0.16500 119244.000000
7300 16104 1 0.16500 119244.000000
7301 13511 1 0.16500 119244.000000
7301 21786 1 0.16500 119244.000000
7302 13511 1 0.16500 119244.000000
7302 16852 1 0.16500 119244.000000
7303 13512 1 0.16500 119244.000000
7303 15184 1 0.16500 119244.000000
7304 13512 1 0.16500 119244.000000
7304 16457 1 0.16500 119244.000000
7305 13512 1 0.16500 119244.000000
7305 14998 1 0.16500 119244.000000
7306 13513 1 0.16500 119244.000000
7306 15271 1 0.16500 119244.000000
7307 13513 1 0.16500 119244.000000
7307 13888 1 0.16500 119244.000000
7308 13158 1 0.16500 119244.000000
7308 13513 1 0.16500 119244.000000
7309 13514 1 0.16500 119244.000000
7309 22137 1 0.16500 119244.000000
7310 13514 1 0.16500 119244.000000
7310 13571 1 0.16500 119244.000000
7311 13514 1 0.16500 119244.000000
7311 18448 1 0.16500 119244.000000
7312 13514 1 0.16500 119244.000000
7312 15378 1 0.16500 119244.000000
7313 13515 1 0.16500 119244.000000
7313 15146 1 0.16500 119244.000000
7314 13515 1 0.16500 119244.000000
7314 15156 1 0.16500 119244.000000
7315 13516 1 0.16500 119244.000000
7315 14833 1 0.16500 119244.000000
7316 13516 1 0.16500 119244.000000
7316 15299 1 0.16500 119244.000000
7317 13518 1 0.16500 119244.000000
7317 13914 1 0.16500 119244.000000
7318 13518 1 0.16500 119244.000000
7318 15974 1 0.16500 119244.000000
7319 11709 1 0.16500 119244.000000
7319 16020 1 0.16500 119244.000000
7320 11709 1 0.16500 119244.000000
7320 14446 1 0.16500 119244.000000
7321 13520 1 0.16500 119244.000000
7321 13885 1 0.16500 119244.000000
7322 13520 1 0.16500 119244.000000
7322 16343 1 0.16500 119244.000000
7323 13521 1 0.16500 119244.000000
7323 15488 1 0.16500 119244.000000
7324 13521 1 0.16500 119244.000000
7324 15479 1 0.16500 119244.000000
7325 14211 1 0.16500 119244.000000
7325 15488 1 0.16500 119244.000000
7326 13715 1 0.16500 119244.000000
7326 15330 1 0.16500 119244.000000
7327 13523 1 0.16500 119244.000000
7327 14462 1 0.16500 119244.000000
7328 13523 1 0.16500 119244.000000
7328 13715 1 0.16500 119244.000000
7329 13524 1 0.16500 119244.000000
7329 15575 1 0.16500 119244.000000
7330 13525 1 0.16500 119244.000000
7330 14961 1 0.16500 119244.000000
7331 13526 1 0.16500 119244.000000
7331 16519 1 0.16500 119244.000000
7332 13526 1 0.16500 119244.000000
7332 14526 1 0.16500 119244.000000
7333 13526 1 0.16500 119244.000000
7333 14424 1 0.16500 119244.000000
7334 13527 1 0.16500 119244.000000
7334 14350 1 0.16500 119244.000000
7335 13527 1 0.16500 119244.000000
7335 15962 1 0.16500 119244.000000
7336 13527 1 0.16500 119244.000000
7336 16362 1 0.16500 119244.000000
7337 13527 1 0.16500 119244.000000
7337 15376 1 0.16500 119244.000000
7338 13528 1 0.16500 119244.000000
7338 16236 1 0.16500 119244.000000
7339 13528 1 0.16500 119244.000000
7339 14449 1 0.16500 119244.000000
7340 13528 1 0.16500 119244.000000
7340 15019 1 0.16500 119244.000000
7341 16460 1 0.16500 119244.000000
7341 21522 1 0.16500 119244.000000
7342 13529 1 0.16500 119244.000000
7342 21522 1 0.16500 119244.000000
7343 13529 1 0.16500 119244.000000
7343 22119 1 0.16500 119244.000000
7344 13529 1 0.16500 119244.000000
7344 15428 1 0.16500 119244.000000
7345 13530 1 0.16500 119244.000000
7345 15896 1 0.16500 119244.000000
7346 13530 1 0.16500 119244.000000
7346 14686 1 0.16500 119244.000000
7347 13530 1 0.16500 119244.000000
7347 16420 1 0.16500 119244.000000
7348 13531 1 0.16500 119244.000000
7348 16485 1 0.16500 119244.000000
7349 13531 1 0.16500 119244.000000
7349 16433 1 0.16500 119244.000000
7350 13531 1 0.16500 119244.000000
7350 15989 1 0.16500 119244.000000
7351 13532 1 0.16500 119244.000000
7351 13638 1 0.16500 119244.000000
7352 13532 1 0.16500 119244.000000
7352 14407 1 0.16500 119244.000000
7353 13532 1 0.16500 119244.000000
7353 16463 1 0.16500 119244.000000
7354 13533 1 0.16500 119244.000000
7354 15122 1 0.16500 119244.000000
7355 13533 1 0.16500 119244.000000
7355 15642 1 0.16500 119244.000000
7356 13533 1 0.16500 119244.000000
7356 14276 1 0.16500 119244.000000
7357 13534 1 0.16500 119244.000000
7357 16106 1 0.16500 119244.000000
7358 13299 1 0.16500 119244.000000
7358 14772 1 0.16500 119244.000000
7359 13299 1 0.16500 119244.000000
7359 13534 1 0.16500 119244.000000
7360 13535 1 0.16500 119244.000000
7360 16284 1 0.16500 119244.000000
7361 13535 1 0.16500 119244.000000
7361 14784 1 0.16500 119244.000000
7362 13535 1 0.16500 119244.000000
7362 15985 1 0.16500 119244.000000
7363 13536 1 0.16500 119244.000000
7363 21540 1 0.16500 119244.000000
7364 13536 1 0.16500 119244.000000
7364 13879 1 0.16500 119244.000000
7365 13536 1 0.16500 119244.000000
7365 21954 1 0.16500 119244.000000
7366 13537 1 0.16500 119244.000000
7366 15537 1 0.16500 119244.000000
7367 13538 1 0.16500 119244.000000
7367 13710 1 0.16500 119244.000000
7368 11384 1 0.16500 119244.000000
7368 16275 1 0.16500 119244.000000
7369 13539 1 0.16500 119244.000000
7369 14231 1 0.16500 119244.000000
7370 13540 1 0.16500 119244.000000
7370 13932 1 0.16500 119244.000000
7371 11653 1 0.16500 119244.000000
7371 14514 1 0.16500 119244.000000
7372 13540 1 0.16500 119244.000000
7372 15867 1 0.16500 119244.000000
7373 11667 1 0.16500 119244.000000
7373 13307 1 0.16500 119244.000000
7374 13541 1 0.16500 119244.000000
7374 14628 1 0.16500 119244.000000
7375 14305 1 0.16500 119244.000000
7375 21498 1 0.16500 119244.000000
7376 21498 1 0.16500 119244.000000
7376 22047 1 0.16500 119244.000000
7377 13543 1 0.16500 119244.000000
7377 15445 1 0.16500 119244.000000
7378 13543 1 0.16500 119244.000000
7378 16392 1 0.16500 119244.000000
7379 13543 1 0.16500 119244.000000
7379 13897 1 0.16500 119244.000000
7380 13543 1 0.16500 119244.000000
7380 15235 1 0.16500 119244.000000
7381 13544 1 0.16500 119244.000000
7381 14320 1 0.16500 119244.000000
7382 13544 1 0.16500 119244.000000
7382 16363 1 0.16500 119244.000000
7383 13545 1 0.16500 119244.000000
7383 15561 1 0.16500 119244.000000
7384 13547 1 0.16500 119244.000000
7384 14514 1 0.16500 119244.000000
7385 13547 1 0.16500 119244.000000
7385 15226 1 0.16500 119244.000000
7386 13547 1 0.16500 119244.000000
7386 13738 1 0.16500 119244.000000
7387 13547 1 0.16500 119244.000000
7387 15631 1 0.16500 119244.000000
7388 13548 1 0.16500 119244.000000
7388 16065 1 0.16500 119244.000000
7389 13548 1 0.16500 119244.000000
7389 13868 1 0.16500 119244.000000
7390 13549 1 0.16500 119244.000000
7390 15901 1 0.16500 119244.000000
7391 13549 1 0.16500 119244.000000
7391 14979 1 0.16500 119244.000000
7392 13550 1 0.16500 119244.000000
7392 14425 1 0.16500 119244.000000
7393 13550 1 0.16500 119244.000000
7393 14497 1 0.16500 119244.000000
7394 13552 1 0.16500 119244.000000
7394 14118 1 0.16500 119244.000000
7395 13552 1 0.16500 119244.000000
7395 14859 1 0.16500 119244.000000
7396 13552 1 0.16500 119244.000000
7396 15629 1 0.16500 119244.000000
7397 13553 1 0.16500 119244.000000
7397 14016 1 0.16500 119244.000000
7398 13553 1 0.16500 119244.000000
7398 13657 1 0.16500 119244.000000
7399 13554 1 0.16500 119244.000000
7399 21795 1 0.16500 119244.000000
7400 13554 1 0.16500 119244.000000
7400 16488 1 0.16500 119244.000000
7401 13555 1 0.16500 119244.000000
7401 14766 1 0.16500 119244.000000
7402 13555 1 0.16500 119244.000000
7402 14212 1 0.16500 119244.000000
7403 13555 1 0.16500 119244.000000
7403 13625 1 0.16500 119244.000000
7404 13555 1 0.16500 119244.000000
7404 15495 1 0.16500 119244.000000
7405 13556 1 0.16500 119244.000000
7405 16088 1 0.16500 119244.000000
7406 13556 1 0.16500 119244.000000
7406 14114 1 0.16500 119244.000000
7407 13556 1 0.16500 119244.000000
7407 15789 1 0.16500 119244.000000
7408 13557 1 0.16500 119244.000000
7408 15707 1 0.16500 119244.000000
7409 12416 1 0.16500 119244.000000
7409 13565 1 0.16500 119244.000000
7410 14476 1 0.16500 119244.000000
7410 15707 1 0.16500 119244.000000
7411 13558 1 0.16500 119244.000000
7411 16009 1 0.16500 119244.000000
7412 13558 1 0.16500 119244.000000
7412 14187 1 0.16500 119244.000000
7413 13558 1 0.16500 119244.000000
7413 14831 1 0.16500 119244.000000
7414 13559 1 0.16500 119244.000000
7414 14166 1 0.16500 119244.000000
7415 13560 1 0.16500 119244.000000
7415 14440 1 0.16500 119244.000000
7416 13560 1 0.16500 119244.000000
7416 14707 1 0.16500 119244.000000
7417 13561 1 0.16500 119244.000000
7417 16001 1 0.16500 119244.000000
7418 12860 1 0.16500 119244.000000
7418 13562 1 0.16500 119244.000000
7419 13562 1 0.16500 119244.000000
7419 13856 1 0.16500 119244.000000
7420 13562 1 0.16500 119244.000000
7420 14349 1 0.16500 119244.000000
7421 13563 1 0.16500 119244.000000
7421 15563 1 0.16500 119244.000000
7422 13563 1 0.16500 119244.000000
7422 13829 1 0.16500 119244.000000
7423 13564 1 0.16500 119244.000000
7423 15843 1 0.16500 119244.000000
7424 13565 1 0.16500 119244.000000
7424 15002 1 0.16500 119244.000000
7425 13565 1 0.16500 119244.000000
7425 16478 1 0.16500 119244.000000
7426 13565 1 0.16500 119244.000000
7426 13776 1 0.16500 119244.000000
7427 13566 1 0.16500 119244.000000
7427 18112 1 0.16500 119244.000000
7428 13566 1 0.16500 119244.000000
7428 13992 1 0.16500 119244.000000
7429 13566 1 0.16500 119244.000000
7429 15451 1 0.16500 119244.000000
7430 13567 1 0.16500 119244.000000
7430 15368 1 0.16500 119244.000000
7431 12134 1 0.16500 119244.000000
7431 15313 1 0.16500 119244.000000
7432 13567 1 0.16500 119244.000000
7432 15313 1 0.16500 119244.000000
7433 13568 1 0.16500 119244.000000
7433 21765 1 0.16500 119244.000000
7434 13569 1 0.16500 119244.000000
7434 15444 1 0.16500 119244.000000
7435 13569 1 0.16500 119244.000000
7435 15811 1 0.16500 119244.000000
7436 13569 1 0.16500 119244.000000
7436 13602 1 0.16500 119244.000000
7437 13570 1 0.16500 119244.000000
7437 15533 1 0.16500 119244.000000
7438 13570 1 0.16500 119244.000000
7438 15154 1 0.16500 119244.000000
7439 13570 1 0.16500 119244.000000
7439 16416 1 0.16500 119244.000000
7440 13571 1 0.16500 119244.000000
7440 21681 1 0.16500 119244.000000
7441 13571 1 0.16500 119244.000000
7441 21693 1 0.16500 119244.000000
7442 13572 1 0.16500 119244.000000
7442 16212 1 0.16500 119244.000000
7443 13573 1 0.16500 119244.000000
7443 15081 1 0.16500 119244.000000
7444 13573 1 0.16500 119244.000000
7444 14552 1 0.16500 119244.000000
7445 13573 1 0.16500 119244.000000
7445 14519 1 0.16500 119244.000000
7446 13300 1 0.16500 119244.000000
7446 14919 1 0.16500 119244.000000
7447 13575 1 0.16500 119244.000000
7447 16426 1 0.16500 119244.000000
7448 13575 1 0.16500 119244.000000
7448 14449 1 0.16500 119244.000000
7449 13576 1 0.16500 119244.000000
7449 14239 1 0.16500 119244.000000
7450 13576 1 0.16500 119244.000000
7450 14188 1 0.16500 119244.000000
7451 12672 1 0.16500 119244.000000
7451 13957 1 0.16500 119244.000000
7452 13577 1 0.16500 119244.000000
7452 13851 1 0.16500 119244.000000
7453 13577 1 0.16500 119244.000000
7453 13720 1 0.16500 119244.000000
7454 13578 1 0.16500 119244.000000
7454 16514 1 0.16500 119244.000000
7455 13578 1 0.16500 119244.000000
7455 15240 1 0.16500 119244.000000
7456 13578 1 0.16500 119244.000000
7456 14539 1 0.16500 119244.000000
7457 13579 1 0.16500 119244.000000
7457 22089 1 0.16500 119244.000000
7458 13579 1 0.16500 119244.000000
7458 15723 1 0.16500 119244.000000
7459 13580 1 0.16500 119244.000000
7459 15605 1 0.16500 119244.000000
7460 13580 1 0.16500 119244.000000
7460 14615 1 0.16500 119244.000000
7461 13580 1 0.16500 119244.000000
7461 15714 1 0.16500 119244.000000
7462 13581 1 0.16500 119244.000000
7462 14704 1 0.16500 119244.000000
7463 13581 1 0.16500 119244.000000
7463 16257 1 0.16500 119244.000000
7464 13582 1 0.16500 119244.000000
7464 16174 1 0.16500 119244.000000
7465 13582 1 0.16500 119244.000000
7465 13966 1 0.16500 119244.000000
7466 13582 1 0.16500 119244.000000
7466 15138 1 0.16500 119244.000000
7467 13583 1 0.16500 119244.000000
7467 14061 1 0.16500 119244.000000
7468 13583 1 0.16500 119244.000000
7468 14550 1 0.16500 119244.000000
7469 13469 1 0.16500 119244.000000
7469 13584 1 0.16500 119244.000000
7470 14192 1 0.16500 119244.000000
7470 21513 1 0.16500 119244.000000
7471 13585 1 0.16500 119244.000000
7471 16150 1 0.16500 119244.000000
7472 16011 1 0.16500 119244.000000
7472 21516 1 0.16500 119244.000000
7473 13586 1 0.16500 119244.000000
7473 16005 1 0.16500 119244.000000
7474 13587 1 0.16500 119244.000000
7474 14757 1 0.16500 119244.000000
7475 13587 1 0.16500 119244.000000
7475 15128 1 0.16500 119244.000000
7476 13587 1 0.16500 119244.000000
7476 14990 1 0.16500 119244.000000
7477 13247 1 0.16500 119244.000000
7477 13587 1 0.16500 119244.000000
7478 13588 1 0.16500 119244.000000
7478 15170 1 0.16500 119244.000000
7479 13589 1 0.16500 119244.000000
7479 13684 1 0.16500 119244.000000
7480 13589 1 0.16500 119244.000000
7480 14026 1 0.16500 119244.000000
7481 13590 1 0.16500 119244.000000
7481 14371 1 0.16500 119244.000000
7482 13590 1 0.16500 119244.000000
7482 15519 1 0.16500 119244.000000
7483 13590 1 0.16500 119244.000000
7483 13622 1 0.16500 119244.000000
7484 13591 1 0.16500 119244.000000
7484 15166 1 0.16500 119244.000000
7485 14651 1 0.16500 119244.000000
7485 21519 1 0.16500 119244.000000
7486 15903 1 0.16500 119244.000000
7486 21519 1 0.16500 119244.000000
7487 13592 1 0.16500 119244.000000
7487 14223 1 0.16500 119244.000000
7488 13592 1 0.16500 119244.000000
7488 15236 1 0.16500 119244.000000
7489 13592 1 0.16500 119244.000000
7489 14786 1 0.16500 119244.000000
7490 13593 1 0.16500 119244.000000
7490 21795 1 0.16500 119244.000000
7491 13593 1 0.16500 119244.000000
7491 13686 1 0.16500 119244.000000
7492 13593 1 0.16500 119244.000000
7492 13718 1 0.16500 119244.000000
7493 13594 1 0.16500 119244.000000
7493 22026 1 0.16500 119244.000000
7494 13594 1 0.16500 119244.000000
7494 15324 1 0.16500 119244.000000
7495 13595 1 0.16500 119244.000000
7495 14362 1 0.16500 119244.000000
7496 13595 1 0.16500 119244.000000
7496 14158 1 0.16500 119244.000000
7497 13612 1 0.16500 119244.000000
7497 21525 1 0.16500 119244.000000
7498 13596 1 0.16500 119244.000000
7498 14327 1 0.16500 119244.000000
7499 13596 1 0.16500 119244.000000
7499 15560 1 0.16500 119244.000000
7500 13596 1 0.16500 119244.000000
7500 13900 1 0.16500 119244.000000
7501 13596 1 0.16500 119244.000000
7501 14102 1 0.16500 119244.000000
7502 13597 1 0.16500 119244.000000
7502 15283 1 0.16500 119244.000000
7503 13597 1 0.16500 119244.000000
7503 14277 1 0.16500 119244.000000
7504 13597 1 0.16500 119244.000000
7504 14271 1 0.16500 119244.000000
7505 13598 1 0.16500 119244.000000
7505 15787 1 0.16500 119244.000000
7506 13365 1 0.16500 119244.000000
7506 13598 1 0.16500 119244.000000
7507 14512 1 0.16500 119244.000000
7507 15080 1 0.16500 119244.000000
7508 13599 1 0.16500 119244.000000
7508 14512 1 0.16500 119244.000000
7509 13599 1 0.16500 119244.000000
7509 14949 1 0.16500 119244.000000
7510 14241 1 0.16500 119244.000000
7510 21531 1 0.16500 119244.000000
7511 13600 1 0.16500 119244.000000
7511 14141 1 0.16500 119244.000000
7512 12105 1 0.16500 119244.000000
7512 13600 1 0.16500 119244.000000
7513 14142 1 0.16500 119244.000000
7513 15910 1 0.16500 119244.000000
7514 13818 1 0.16500 119244.000000
7514 14142 1 0.16500 119244.000000
7515 13601 1 0.16500 119244.000000
7515 14933 1 0.16500 119244.000000
7516 13602 1 0.16500 119244.000000
7516 13785 1 0.16500 119244.000000
7517 13602 1 0.16500 119244.000000
7517 15905 1 0.16500 119244.000000
7518 13603 1 0.16500 119244.000000
7518 14327 1 0.16500 119244.000000
7519 13603 1 0.16500 119244.000000
7519 15351 1 0.16500 119244.000000
7520 13604 1 0.16500 119244.000000
7520 15434 1 0.16500 119244.000000
7521 13604 1 0.16500 119244.000000
7521 15391 1 0.16500 119244.000000
7522 15391 1 0.16500 119244.000000
7522 16214 1 0.16500 119244.000000
7523 13605 1 0.16500 119244.000000
7523 16358 1 0.16500 119244.000000
7524 13605 1 0.16500 119244.000000
7524 14805 1 0.16500 119244.000000
7525 13605 1 0.16500 119244.000000
7525 14025 1 0.16500 119244.000000
7526 13606 1 0.16500 119244.000000
7526 16102 1 0.16500 119244.000000
7527 13606 1 0.16500 119244.000000
7527 15021 1 0.16500 119244.000000
7528 12965 1 0.16500 119244.000000
7528 21534 1 0.16500 119244.000000
7529 13874 1 0.16500 119244.000000
7529 21534 1 0.16500 119244.000000
7530 13607 1 0.16500 119244.000000
7530 14824 1 0.16500 119244.000000
7531 13607 1 0.16500 119244.000000
7531 16231 1 0.16500 119244.000000
7532 13607 1 0.16500 119244.000000
7532 15367 1 0.16500 119244.000000
7533 13608 1 0.16500 119244.000000
7533 13857 1 0.16500 119244.000000
7534 13608 1 0.16500 119244.000000
7534 14626 1 0.16500 119244.000000
7535 13609 1 0.16500 119244.000000
7535 16438 1 0.16500 119244.000000
7536 13610 1 0.16500 119244.000000
7536 16138 1 0.16500 119244.000000
7537 13610 1 0.16500 119244.000000
7537 16370 1 0.16500 119244.000000
7538 13611 1 0.16500 119244.000000
7538 15474 1 0.16500 119244.000000
7539 13612 1 0.16500 119244.000000
7539 16329 1 0.16500 119244.000000
7540 13612 1 0.16500 119244.000000
7540 15231 1 0.16500 119244.000000
7541 13613 1 0.16500 119244.000000
7541 15950 1 0.16500 119244.000000
7542 13613 1 0.16500 119244.000000
7542 15532 1 0.16500 119244.000000
7543 13613 1 0.16500 119244.000000
7543 14190 1 0.16500 119244.000000
7544 13614 1 0.16500 119244.000000
7544 15758 1 0.16500 119244.000000
7545 13615 1 0.16500 119244.000000
7545 15919 1 0.16500 119244.000000
7546 13615 1 0.16500 119244.000000
7546 14906 1 0.16500 119244.000000
7547 13617 1 0.16500 119244.000000
7547 13777 1 0.16500 119244.000000
7548 13618 1 0.16500 119244.000000
7548 14186 1 0.16500 119244.000000
7549 13618 1 0.16500 119244.000000
7549 13856 1 0.16500 119244.000000
7550 13618 1 0.16500 119244.000000
7550 15225 1 0.16500 119244.000000
7551 13619 1 0.16500 119244.000000
7551 22404 1 0.16500 119244.000000
7552 13619 1 0.16500 119244.000000
7552 16505 1 0.16500 119244.000000
7553 13620 1 0.16500 119244.000000
7553 14848 1 0.16500 119244.000000
7554 13620 1 0.16500 119244.000000
7554 16474 1 0.16500 119244.000000
7555 13621 1 0.16500 119244.000000
7555 14177 1 0.16500 119244.000000
7556 13622 1 0.16500 119244.000000
7556 14943 1 0.16500 119244.000000
7557 13622 1 0.16500 119244.000000
7557 14767 1 0.16500 119244.000000
7558 13622 1 0.16500 119244.000000
7558 14248 1 0.16500 119244.000000
7559 13883 1 0.16500 119244.000000
7559 21537 1 0.16500 119244.000000
7560 13623 1 0.16500 119244.000000
7560 15503 1 0.16500 119244.000000
7561 13623 1 0.16500 119244.000000
7561 16399 1 0.16500 119244.000000
7562 13623 1 0.16500 119244.000000
7562 14703 1 0.16500 119244.000000
7563 13623 1 0.16500 119244.000000
7563 13828 1 0.16500 119244.000000
7564 13624 1 0.16500 119244.000000
7564 15115 1 0.16500 119244.000000
7565 13624 1 0.16500 119244.000000
7565 13734 1 0.16500 119244.000000
7566 13625 1 0.16500 119244.000000
7566 15863 1 0.16500 119244.000000
7567 13626 1 0.16500 119244.000000
7567 14554 1 0.16500 119244.000000
7568 14554 1 0.16500 119244.000000
7568 16205 1 0.16500 119244.000000
7569 13626 1 0.16500 119244.000000
7569 13997 1 0.16500 119244.000000
7570 14140 1 0.16500 119244.000000
7570 14616 1 0.16500 119244.000000
7571 13627 1 0.16500 119244.000000
7571 14140 1 0.16500 119244.000000
7572 13627 1 0.16500 119244.000000
7572 14419 1 0.16500 119244.000000
7573 13628 1 0.16500 119244.000000
7573 14560 1 0.16500 119244.000000
7574 13628 1 0.16500 119244.000000
7574 15265 1 0.16500 119244.000000
7575 13628 1 0.16500 119244.000000
7575 15939 1 0.16500 119244.000000
7576 13631 1 0.16500 119244.000000
7576 14234 1 0.16500 119244.000000
7577 13631 1 0.16500 119244.000000
7577 15455 1 0.16500 119244.000000
7578 13632 1 0.16500 119244.000000
7578 14886 1 0.16500 119244.000000
7579 13633 1 0.16500 119244.000000
7579 14680 1 0.16500 119244.000000
7580 13633 1 0.16500 119244.000000
7580 21603 1 0.16500 119244.000000
7581 13633 1 0.16500 119244.000000
7581 15206 1 0.16500 119244.000000
7582 13634 1 0.16500 119244.000000
7582 15142 1 0.16500 119244.000000
7583 13635 1 0.16500 119244.000000
7583 16288 1 0.16500 119244.000000
7584 13636 1 0.16500 119244.000000
7584 14248 1 0.16500 119244.000000
7585 13636 1 0.16500 119244.000000
7585 15087 1 0.16500 119244.000000
7586 13637 1 0.16500 119244.000000
7586 16007 1 0.16500 119244.000000
7587 13637 1 0.16500 119244.000000
7587 16369 1 0.16500 119244.000000
7588 13638 1 0.16500 119244.000000
7588 15711 1 0.16500 119244.000000
7589 13638 1 0.16500 119244.000000
7589 14090 1 0.16500 119244.000000
7590 13638 1 0.16500 119244.000000
7590 13735 1 0.16500 119244.000000
7591 13639 1 0.16500 119244.000000
7591 14551 1 0.16500 119244.000000
7592 13639 1 0.16500 119244.000000
7592 16231 1 0.16500 119244.000000
7593 13639 1 0.16500 119244.000000
7593 15474 1 0.16500 119244.000000
7594 13640 1 0.16500 119244.000000
7594 15053 1 0.16500 119244.000000
7595 13640 1 0.16500 119244.000000
7595 14557 1 0.16500 119244.000000
7596 13640 1 0.16500 119244.000000
7596 14695 1 0.16500 119244.000000
7597 13641 1 0.16500 119244.000000
7597 13852 1 0.16500 119244.000000
7598 13641 1 0.16500 119244.000000
7598 22439 1 0.16500 119244.000000
7599 13642 1 0.16500 119244.000000
7599 15919 1 0.16500 119244.000000
7600 13642 1 0.16500 119244.000000
7600 13998 1 0.16500 119244.000000
7601 13643 1 0.16500 119244.000000
7601 13647 1 0.16500 119244.000000
7602 13643 1 0.16500 119244.000000
7602 15501 1 0.16500 119244.000000
7603 14124 1 0.16500 119244.000000
7603 15150 1 0.16500 119244.000000
7604 13644 1 0.16500 119244.000000
7604 15082 1 0.16500 119244.000000
7605 13644 1 0.16500 119244.000000
7605 15150 1 0.16500 119244.000000
7606 13644 1 0.16500 119244.000000
7606 14975 1 0.16500 119244.000000
7607 13645 1 0.16500 119244.000000
7607 15740 1 0.16500 119244.000000
7608 13646 1 0.16500 119244.000000
7608 14427 1 0.16500 119244.000000
7609 13646 1 0.16500 119244.000000
7609 15147 1 0.16500 119244.000000
7610 13647 1 0.16500 119244.000000
7610 15408 1 0.16500 119244.000000
7611 13648 1 0.16500 119244.000000
7611 13995 1 0.16500 119244.000000
7612 14107 1 0.16500 119244.000000
7612 22140 1 0.16500 119244.000000
7613 13649 1 0.16500 119244.000000
7613 22140 1 0.16500 119244.000000
7614 13649 1 0.16500 119244.000000
7614 20430 1 0.16500 119244.000000
7615 13650 1 0.16500 119244.000000
7615 15803 1 0.16500 119244.000000
7616 13650 1 0.16500 119244.000000
7616 16500 1 0.16500 119244.000000
7617 13650 1 0.16500 119244.000000
7617 14968 1 0.16500 119244.000000
7618 13652 1 0.16500 119244.000000
7618 14017 1 0.16500 119244.000000
7619 13652 1 0.16500 119244.000000
7619 13907 1 0.16500 119244.000000
7620 13652 1 0.16500 119244.000000
7620 14543 1 0.16500 119244.000000
7621 13653 1 0.16500 119244.000000
7621 16238 1 0.16500 119244.000000
7622 13653 1 0.16500 119244.000000
7622 14496 1 0.16500 119244.000000
7623 13653 1 0.16500 119244.000000
7623 15133 1 0.16500 119244.000000
7624 21543 1 0.16500 119244.000000
7624 21870 1 0.16500 119244.000000
7625 17160 1 0.16500 119244.000000
7625 21543 1 0.16500 119244.000000
7626 14811 1 0.16500 119244.000000
7626 21543 1 0.16500 119244.000000
7627 21546 1 0.16500 119244.000000
7627 22344 1 0.16500 119244.000000
7628 14672 1 0.16500 119244.000000
7628 21546 1 0.16500 119244.000000
7629 13654 1 0.16500 119244.000000
7629 14992 1 0.16500 119244.000000
7630 13654 1 0.16500 119244.000000
7630 15432 1 0.16500 119244.000000
7631 13654 1 0.16500 119244.000000
7631 16222 1 0.16500 119244.000000
7632 13655 1 0.16500 119244.000000
7632 14659 1 0.16500 119244.000000
7633 13655 1 0.16500 119244.000000
7633 15092 1 0.16500 119244.000000
7634 13655 1 0.16500 119244.000000
7634 15946 1 0.16500 119244.000000
7635 13655 1 0.16500 119244.000000
7635 15161 1 0.16500 119244.000000
7636 15430 1 0.16500 119244.000000
7636 21552 1 0.16500 119244.000000
7637 13656 1 0.16500 119244.000000
7637 14027 1 0.16500 119244.000000
7638 13656 1 0.16500 119244.000000
7638 22278 1 0.16500 119244.000000
7639 13656 1 0.16500 119244.000000
7639 16034 1 0.16500 119244.000000
7640 13657 1 0.16500 119244.000000
7640 14500 1 0.16500 119244.000000
7641 13657 1 0.16500 119244.000000
7641 14443 1 0.16500 119244.000000
7642 13658 1 0.16500 119244.000000
7642 15979 1 0.16500 119244.000000
7643 13658 1 0.16500 119244.000000
7643 16124 1 0.16500 119244.000000
7644 14370 1 0.16500 119244.000000
7644 15718 1 0.16500 119244.000000
7645 13659 1 0.16500 119244.000000
7645 15718 1 0.16500 119244.000000
7646 11907 1 0.16500 119244.000000
7646 13659 1 0.16500 119244.000000
7647 13660 1 0.16500 119244.000000
7647 15420 1 0.16500 119244.000000
7648 13660 1 0.16500 119244.000000
7648 13894 1 0.16500 119244.000000
7649 13661 1 0.16500 119244.000000
7649 16006 1 0.16500 119244.000000
7650 13661 1 0.16500 119244.000000
7650 13739 1 0.16500 119244.000000
7651 13662 1 0.16500 119244.000000
7651 14494 1 0.16500 119244.000000
7652 13662 1 0.16500 119244.000000
7652 15274 1 0.16500 119244.000000
7653 13662 1 0.16500 119244.000000
7653 14230 1 0.16500 119244.000000
7654 13663 1 0.16500 119244.000000
7654 16394 1 0.16500 119244.000000
7655 12915 1 0.16500 119244.000000
7655 15825 1 0.16500 119244.000000
7656 13664 1 0.16500 119244.000000
7656 15177 1 0.16500 119244.000000
7657 13665 1 0.16500 119244.000000
7657 21768 1 0.16500 119244.000000
7658 12500 1 0.16500 119244.000000
7658 14990 1 0.16500 119244.000000
7659 13666 1 0.16500 119244.000000
7659 14675 1 0.16500 119244.000000
7660 13666 1 0.16500 119244.000000
7660 15585 1 0.16500 119244.000000
7661 21555 1 0.16500 119244.000000
7661 21936 1 0.16500 119244.000000
7662 13770 1 0.16500 119244.000000
7662 21555 1 0.16500 119244.000000
7663 11862 1 0.16500 119244.000000
7663 21936 1 0.16500 119244.000000
7664 13667 1 0.16500 119244.000000
7664 14522 1 0.16500 119244.000000
7665 14484 1 0.16500 119244.000000
7665 21558 1 0.16500 119244.000000
7666 21558 1 0.16500 119244.000000
7666 21633 1 0.16500 119244.000000
7667 13669 1 0.16500 119244.000000
7667 15202 1 0.16500 119244.000000
7668 13670 1 0.16500 119244.000000
7668 15605 1 0.16500 119244.000000
7669 11475 1 0.16500 119244.000000
7669 14146 1 0.16500 119244.000000
7670 13034 1 0.16500 119244.000000
7670 16098 1 0.16500 119244.000000
7671 13671 1 0.16500 119244.000000
7671 16198 1 0.16500 119244.000000
7672 14935 1 0.16500 119244.000000
7672 16198 1 0.16500 119244.000000
7673 13672 1 0.16500 119244.000000
7673 14975 1 0.16500 119244.000000
7674 12926 1 0.16500 119244.000000
7674 13673 1 0.16500 119244.000000
7675 13674 1 0.16500 119244.000000
7675 15239 1 0.16500 119244.000000
7676 13674 1 0.16500 119244.000000
7676 15613 1 0.16500 119244.000000
7677 13674 1 0.16500 119244.000000
7677 15119 1 0.16500 119244.000000
7678 13675 1 0.16500 119244.000000
7678 14779 1 0.16500 119244.000000
7679 13675 1 0.16500 119244.000000
7679 15847 1 0.16500 119244.000000
7680 13675 1 0.16500 119244.000000
7680 14763 1 0.16500 119244.000000
7681 13676 1 0.16500 119244.000000
7681 15213 1 0.16500 119244.000000
7682 13676 1 0.16500 119244.000000
7682 14406 1 0.16500 119244.000000
7683 13677 1 0.16500 119244.000000
7683 14509 1 0.16500 119244.000000
7684 13677 1 0.16500 119244.000000
7684 16376 1 0.16500 119244.000000
7685 13677 1 0.16500 119244.000000
7685 15781 1 0.16500 119244.000000
7686 14699 1 0.16500 119244.000000
7686 21561 1 0.16500 119244.000000
7687 13969 1 0.16500 119244.000000
7687 21564 1 0.16500 119244.000000
7688 15326 1 0.16500 119244.000000
7688 21564 1 0.16500 119244.000000
7689 13679 1 0.16500 119244.000000
7689 15383 1 0.16500 119244.000000
7690 13679 1 0.16500 119244.000000
7690 16223 1 0.16500 119244.000000
7691 13680 1 0.16500 119244.000000
7691 15744 1 0.16500 119244.000000
7692 13680 1 0.16500 119244.000000
7692 16153 1 0.16500 119244.000000
7693 14707 1 0.16500 119244.000000
7693 15467 1 0.16500 119244.000000
7694 13681 1 0.16500 119244.000000
7694 14001 1 0.16500 119244.000000
7695 13681 1 0.16500 119244.000000
7695 14707 1 0.16500 119244.000000
7696 13681 1 0.16500 119244.000000
7696 16073 1 0.16500 119244.000000
7697 13682 1 0.16500 119244.000000
7697 16455 1 0.16500 119244.000000
7698 13682 1 0.16500 119244.000000
7698 14525 1 0.16500 119244.000000
7699 14336 1 0.16500 119244.000000
7699 16455 1 0.16500 119244.000000
7700 13683 1 0.16500 119244.000000
7700 16282 1 0.16500 119244.000000
7701 13683 1 0.16500 119244.000000
7701 15659 1 0.16500 119244.000000
7702 13684 1 0.16500 119244.000000
7702 15840 1 0.16500 119244.000000
7703 13684 1 0.16500 119244.000000
7703 14454 1 0.16500 119244.000000
7704 13685 1 0.16500 119244.000000
7704 15220 1 0.16500 119244.000000
7705 13685 1 0.16500 119244.000000
7705 15745 1 0.16500 119244.000000
7706 13686 1 0.16500 119244.000000
7706 14126 1 0.16500 119244.000000
7707 13686 1 0.16500 119244.000000
7707 14683 1 0.16500 119244.000000
7708 13687 1 0.16500 119244.000000
7708 22257 1 0.16500 119244.000000
7709 13687 1 0.16500 119244.000000
7709 15561 1 0.16500 119244.000000
7710 13687 1 0.16500 119244.000000
7710 15169 1 0.16500 119244.000000
7711 21567 1 0.16500 119244.000000
7711 22158 1 0.16500 119244.000000
7712 14329 1 0.16500 119244.000000
7712 21567 1 0.16500 119244.000000
7713 13688 1 0.16500 119244.000000
7713 15436 1 0.16500 119244.000000
7714 13688 1 0.16500 119244.000000
7714 21294 1 0.16500 119244.000000
7715 13689 1 0.16500 119244.000000
7715 16327 1 0.16500 119244.000000
7716 13689 1 0.16500 119244.000000
7716 16078 1 0.16500 119244.000000
7717 13689 1 0.16500 119244.000000
7717 14611 1 0.16500 119244.000000
7718 13690 1 0.16500 119244.000000
7718 16419 1 0.16500 119244.000000
7719 13690 1 0.16500 119244.000000
7719 15291 1 0.16500 119244.000000
7720 13690 1 0.16500 119244.000000
7720 15610 1 0.16500 119244.000000
7721 13691 1 0.16500 119244.000000
7721 14683 1 0.16500 119244.000000
7722 13692 1 0.16500 119244.000000
7722 13936 1 0.16500 119244.000000
7723 13692 1 0.16500 119244.000000
7723 16014 1 0.16500 119244.000000
7724 13692 1 0.16500 119244.000000
7724 14333 1 0.16500 119244.000000
7725 13692 1 0.16500 119244.000000
7725 15091 1 0.16500 119244.000000
7726 13693 1 0.16500 119244.000000
7726 14522 1 0.16500 119244.000000
7727 13693 1 0.16500 119244.000000
7727 15808 1 0.16500 119244.000000
7728 13693 1 0.16500 119244.000000
7728 14501 1 0.16500 119244.000000
7729 13694 1 0.16500 119244.000000
7729 16377 1 0.16500 119244.000000
7730 13694 1 0.16500 119244.000000
7730 14986 1 0.16500 119244.000000
7731 13695 1 0.16500 119244.000000
7731 14491 1 0.16500 119244.000000
7732 17454 1 0.16500 119244.000000
7732 21570 1 0.16500 119244.000000
7733 21570 1 0.16500 119244.000000
7733 22218 1 0.16500 119244.000000
7734 15568 1 0.16500 119244.000000
7734 21570 1 0.16500 119244.000000
7735 13696 1 0.16500 119244.000000
7735 15838 1 0.16500 119244.000000
7736 13696 1 0.16500 119244.000000
7736 14721 1 0.16500 119244.000000
7737 13696 1 0.16500 119244.000000
7737 14018 1 0.16500 119244.000000
7738 13697 1 0.16500 119244.000000
7738 14881 1 0.16500 119244.000000
7739 13380 1 0.16500 119244.000000
7739 14692 1 0.16500 119244.000000
7740 11561 1 0.16500 119244.000000
7740 13697 1 0.16500 119244.000000
7741 13698 1 0.16500 119244.000000
7741 22200 1 0.16500 119244.000000
7742 13698 1 0.16500 119244.000000
7742 21840 1 0.16500 119244.000000
7743 13698 1 0.16500 119244.000000
7743 14449 1 0.16500 119244.000000
7744 13698 1 0.16500 119244.000000
7744 15609 1 0.16500 119244.000000
7745 13699 1 0.16500 119244.000000
7745 15911 1 0.16500 119244.000000
7746 13700 1 0.16500 119244.000000
7746 15279 1 0.16500 119244.000000
7747 13700 1 0.16500 119244.000000
7747 14567 1 0.16500 119244.000000
7748 13700 1 0.16500 119244.000000
7748 14353 1 0.16500 119244.000000
7749 13700 1 0.16500 119244.000000
7749 15443 1 0.16500 119244.000000
7750 13702 1 0.16500 119244.000000
7750 15867 1 0.16500 119244.000000
7751 13702 1 0.16500 119244.000000
7751 15226 1 0.16500 119244.000000
7752 13703 1 0.16500 119244.000000
7752 15925 1 0.16500 119244.000000
7753 13703 1 0.16500 119244.000000
7753 15595 1 0.16500 119244.000000
7754 13703 1 0.16500 119244.000000
7754 15870 1 0.16500 119244.000000
7755 13704 1 0.16500 119244.000000
7755 16452 1 0.16500 119244.000000
7756 13704 1 0.16500 119244.000000
7756 15232 1 0.16500 119244.000000
7757 13704 1 0.16500 119244.000000
7757 16422 1 0.16500 119244.000000
7758 13705 1 0.16500 119244.000000
7758 15881 1 0.16500 119244.000000
7759 12527 1 0.16500 119244.000000
7759 16371 1 0.16500 119244.000000
7760 13706 1 0.16500 119244.000000
7760 15655 1 0.16500 119244.000000
7761 12733 1 0.16500 119244.000000
7761 16093 1 0.16500 119244.000000
7762 13708 1 0.16500 119244.000000
7762 13879 1 0.16500 119244.000000
7763 13716 1 0.16500 119244.000000
7763 13879 1 0.16500 119244.000000
7764 13708 1 0.16500 119244.000000
7764 15831 1 0.16500 119244.000000
7765 11781 1 0.16500 119244.000000
7765 16488 1 0.16500 119244.000000
7766 13709 1 0.16500 119244.000000
7766 15153 1 0.16500 119244.000000
7767 13709 1 0.16500 119244.000000
7767 14683 1 0.16500 119244.000000
7768 13710 1 0.16500 119244.000000
7768 14813 1 0.16500 119244.000000
7769 14937 1 0.16500 119244.000000
7769 21573 1 0.16500 119244.000000
7770 16978 1 0.16500 119244.000000
7770 21573 1 0.16500 119244.000000
7771 13711 1 0.16500 119244.000000
7771 16191 1 0.16500 119244.000000
7772 13711 1 0.16500 119244.000000
7772 17426 1 0.16500 119244.000000
7773 11535 1 0.16500 119244.000000
7773 13711 1 0.16500 119244.000000
7774 14533 1 0.16500 119244.000000
7774 15652 1 0.16500 119244.000000
7775 13712 1 0.16500 119244.000000
7775 14799 1 0.16500 119244.000000
7776 13712 1 0.16500 119244.000000
7776 15652 1 0.16500 119244.000000
7777 13713 1 0.16500 119244.000000
7777 13785 1 0.16500 119244.000000
7778 13714 1 0.16500 119244.000000
7778 16312 1 0.16500 119244.000000
7779 13714 1 0.16500 119244.000000
7779 14365 1 0.16500 119244.000000
7780 13715 1 0.16500 119244.000000
7780 15143 1 0.16500 119244.000000
7781 13523 1 0.16500 119244.000000
7781 14938 1 0.16500 119244.000000
7782 13715 1 0.16500 119244.000000
7782 16317 1 0.16500 119244.000000
7783 13716 1 0.16500 119244.000000
7783 21018 1 0.16500 119244.000000
7784 14495 1 0.16500 119244.000000
7784 16218 1 0.16500 119244.000000
7785 13716 1 0.16500 119244.000000
7785 14495 1 0.16500 119244.000000
7786 13717 1 0.16500 119244.000000
7786 14332 1 0.16500 119244.000000
7787 13717 1 0.16500 119244.000000
7787 15526 1 0.16500 119244.000000
7788 13718 1 0.16500 119244.000000
7788 14750 1 0.16500 119244.000000
7789 13718 1 0.16500 119244.000000
7789 15998 1 0.16500 119244.000000
7790 13718 1 0.16500 119244.000000
7790 16488 1 0.16500 119244.000000
7791 13719 1 0.16500 119244.000000
7791 15168 1 0.16500 119244.000000
7792 13720 1 0.16500 119244.000000
7792 15512 1 0.16500 119244.000000
7793 13721 1 0.16500 119244.000000
7793 15163 1 0.16500 119244.000000
7794 13721 1 0.16500 119244.000000
7794 16475 1 0.16500 119244.000000
7795 13721 1 0.16500 119244.000000
7795 14824 1 0.16500 119244.000000
7796 13722 1 0.16500 119244.000000
7796 16159 1 0.16500 119244.000000
7797 13722 1 0.16500 119244.000000
7797 14144 1 0.16500 119244.000000
7798 13724 1 0.16500 119244.000000
7798 16110 1 0.16500 119244.000000
7799 13724 1 0.16500 119244.000000
7799 14114 1 0.16500 119244.000000
7800 13921 1 0.16500 119244.000000
7800 21576 1 0.16500 119244.000000
7801 13725 1 0.16500 119244.000000
7801 15360 1 0.16500 119244.000000
7802 13725 1 0.16500 119244.000000
7802 16130 1 0.16500 119244.000000
7803 13726 1 0.16500 119244.000000
7803 14285 1 0.16500 119244.000000
7804 13727 1 0.16500 119244.000000
7804 15287 1 0.16500 119244.000000
7805 21579 1 0.16500 119244.000000
7805 21654 1 0.16500 119244.000000
7806 21579 1 0.16500 119244.000000
7806 22236 1 0.16500 119244.000000
7807 13728 1 0.16500 119244.000000
7807 21888 1 0.16500 119244.000000
7808 13729 1 0.16500 119244.000000
7808 14972 1 0.16500 119244.000000
7809 13729 1 0.16500 119244.000000
7809 13949 1 0.16500 119244.000000
7810 13729 1 0.16500 119244.000000
7810 14902 1 0.16500 119244.000000
7811 13729 1 0.16500 119244.000000
7811 15602 1 0.16500 119244.000000
7812 13995 1 0.16500 119244.000000
7812 21582 1 0.16500 119244.000000
7813 21582 1 0.16500 119244.000000
7813 22369 1 0.16500 119244.000000
7814 13730 1 0.16500 119244.000000
7814 15714 1 0.16500 119244.000000
7815 13730 1 0.16500 119244.000000
7815 13816 1 0.16500 119244.000000
7816 13731 1 0.16500 119244.000000
7816 15759 1 0.16500 119244.000000
7817 13731 1 0.16500 119244.000000
7817 15338 1 0.16500 119244.000000
7818 21636 1 0.16500 119244.000000
7818 22191 1 0.16500 119244.000000
7819 15824 1 0.16500 119244.000000
7819 21636 1 0.16500 119244.000000
7820 12319 1 0.16500 119244.000000
7820 15220 1 0.16500 119244.000000
7821 13733 1 0.16500 119244.000000
7821 15550 1 0.16500 119244.000000
7822 13733 1 0.16500 119244.000000
7822 15195 1 0.16500 119244.000000
7823 13734 1 0.16500 119244.000000
7823 14073 1 0.16500 119244.000000
7824 13734 1 0.16500 119244.000000
7824 16458 1 0.16500 119244.000000
7825 13734 1 0.16500 119244.000000
7825 15845 1 0.16500 119244.000000
7826 13736 1 0.16500 119244.000000
7826 16089 1 0.16500 119244.000000
7827 13736 1 0.16500 119244.000000
7827 16447 1 0.16500 119244.000000
7828 13737 1 0.16500 119244.000000
7828 16238 1 0.16500 119244.000000
7829 13737 1 0.16500 119244.000000
7829 16093 1 0.16500 119244.000000
7830 13738 1 0.16500 119244.000000
7830 16523 1 0.16500 119244.000000
7831 13738 1 0.16500 119244.000000
7831 15036 1 0.16500 119244.000000
7832 16283 1 0.16500 119244.000000
7832 16502 1 0.16500 119244.000000
7833 13739 1 0.16500 119244.000000
7833 16502 1 0.16500 119244.000000
7834 13740 1 0.16500 119244.000000
7834 21879 1 0.16500 119244.000000
7835 13740 1 0.16500 119244.000000
7835 15032 1 0.16500 119244.000000
7836 13740 1 0.16500 119244.000000
7836 14715 1 0.16500 119244.000000
7837 13741 1 0.16500 119244.000000
7837 14506 1 0.16500 119244.000000
7838 13741 1 0.16500 119244.000000
7838 14725 1 0.16500 119244.000000
7839 13742 1 0.16500 119244.000000
7839 14064 1 0.16500 119244.000000
7840 13743 1 0.16500 119244.000000
7840 14527 1 0.16500 119244.000000
7841 13743 1 0.16500 119244.000000
7841 13843 1 0.16500 119244.000000
7842 21585 1 0.16500 119244.000000
7842 21747 1 0.16500 119244.000000
7843 13744 1 0.16500 119244.000000
7843 22155 1 0.16500 119244.000000
7844 13744 1 0.16500 119244.000000
7844 13770 1 0.16500 119244.000000
7845 13744 1 0.16500 119244.000000
7845 16172 1 0.16500 119244.000000
7846 13745 1 0.16500 119244.000000
7846 14731 1 0.16500 119244.000000
7847 13745 1 0.16500 119244.000000
7847 13746 1 0.16500 119244.000000
7848 13746 1 0.16500 119244.000000
7848 14603 1 0.16500 119244.000000
7849 13746 1 0.16500 119244.000000
7849 15490 1 0.16500 119244.000000
7850 13747 1 0.16500 119244.000000
7850 14637 1 0.16500 119244.000000
7851 15578 1 0.16500 119244.000000
7851 21942 1 0.16500 119244.000000
7852 13747 1 0.16500 119244.000000
7852 15578 1 0.16500 119244.000000
7853 13748 1 0.16500 119244.000000
7853 15949 1 0.16500 119244.000000
7854 13749 1 0.16500 119244.000000
7854 15257 1 0.16500 119244.000000
7855 13749 1 0.16500 119244.000000
7855 13774 1 0.16500 119244.000000
7856 13750 1 0.16500 119244.000000
7856 15601 1 0.16500 119244.000000
7857 13750 1 0.16500 119244.000000
7857 14362 1 0.16500 119244.000000
7858 13750 1 0.16500 119244.000000
7858 16066 1 0.16500 119244.000000
7859 13871 1 0.16500 119244.000000
7859 21588 1 0.16500 119244.000000
7860 13751 1 0.16500 119244.000000
7860 16628 1 0.16500 119244.000000
7861 13751 1 0.16500 119244.000000
7861 22158 1 0.16500 119244.000000
7862 13752 1 0.16500 119244.000000
7862 21816 1 0.16500 119244.000000
7863 13752 1 0.16500 119244.000000
7863 22394 1 0.16500 119244.000000
7864 13752 1 0.16500 119244.000000
7864 16485 1 0.16500 119244.000000
7865 13176 1 0.16500 119244.000000
7865 13753 1 0.16500 119244.000000
7866 13753 1 0.16500 119244.000000
7866 14511 1 0.16500 119244.000000
7867 13753 1 0.16500 119244.000000
7867 14346 1 0.16500 119244.000000
7868 13753 1 0.16500 119244.000000
7868 16441 1 0.16500 119244.000000
7869 13755 1 0.16500 119244.000000
7869 16095 1 0.16500 119244.000000
7870 13755 1 0.16500 119244.000000
7870 13802 1 0.16500 119244.000000
7871 13756 1 0.16500 119244.000000
7871 15336 1 0.16500 119244.000000
7872 13756 1 0.16500 119244.000000
7872 14473 1 0.16500 119244.000000
7873 13757 1 0.16500 119244.000000
7873 15487 1 0.16500 119244.000000
7874 13757 1 0.16500 119244.000000
7874 16019 1 0.16500 119244.000000
7875 13758 1 0.16500 119244.000000
7875 14617 1 0.16500 119244.000000
7876 13758 1 0.16500 119244.000000
7876 14055 1 0.16500 119244.000000
7877 13758 1 0.16500 119244.000000
7877 22218 1 0.16500 119244.000000
7878 13329 1 0.16500 119244.000000
7878 13759 1 0.16500 119244.000000
7879 13759 1 0.16500 119244.000000
7879 15517 1 0.16500 119244.000000
7880 13759 1 0.16500 119244.000000
7880 16164 1 0.16500 119244.000000
7881 13760 1 0.16500 119244.000000
7881 15890 1 0.16500 119244.000000
7882 13760 1 0.16500 119244.000000
7882 16185 1 0.16500 119244.000000
7883 13761 1 0.16500 119244.000000
7883 15123 1 0.16500 119244.000000
7884 13761 1 0.16500 119244.000000
7884 15542 1 0.16500 119244.000000
7885 13761 1 0.16500 119244.000000
7885 13850 1 0.16500 119244.000000
7886 13762 1 0.16500 119244.000000
7886 15745 1 0.16500 119244.000000
7887 13762 1 0.16500 119244.000000
7887 15795 1 0.16500 119244.000000
7888 13762 1 0.16500 119244.000000
7888 15071 1 0.16500 119244.000000
7889 13763 1 0.16500 119244.000000
7889 16343 1 0.16500 119244.000000
7890 13763 1 0.16500 119244.000000
7890 15948 1 0.16500 119244.000000
7891 13763 1 0.16500 119244.000000
7891 14701 1 0.16500 119244.000000
7892 13764 1 0.16500 119244.000000
7892 14201 1 0.16500 119244.000000
7893 13764 1 0.16500 119244.000000
7893 15151 1 0.16500 119244.000000
7894 13764 1 0.16500 119244.000000
7894 13783 1 0.16500 119244.000000
7895 13765 1 0.16500 119244.000000
7895 16011 1 0.16500 119244.000000
7896 13765 1 0.16500 119244.000000
7896 16066 1 0.16500 119244.000000
7897 13765 1 0.16500 119244.000000
7897 18738 1 0.16500 119244.000000
7898 13766 1 0.16500 119244.000000
7898 14345 1 0.16500 119244.000000
7899 13766 1 0.16500 119244.000000
7899 14681 1 0.16500 119244.000000
7900 13766 1 0.16500 119244.000000
7900 15536 1 0.16500 119244.000000
7901 13767 1 0.16500 119244.000000
7901 14476 1 0.16500 119244.000000
7902 13768 1 0.16500 119244.000000
7902 16248 1 0.16500 119244.000000
7903 13768 1 0.16500 119244.000000
7903 14247 1 0.16500 119244.000000
7904 13769 1 0.16500 119244.000000
7904 16111 1 0.16500 119244.000000
7905 13769 1 0.16500 119244.000000
7905 14126 1 0.16500 119244.000000
7906 13771 1 0.16500 119244.000000
7906 14601 1 0.16500 119244.000000
7907 13771 1 0.16500 119244.000000
7907 14079 1 0.16500 119244.000000
7908 21591 1 0.16500 119244.000000
7908 22326 1 0.16500 119244.000000
7909 13772 1 0.16500 119244.000000
7909 22409 1 0.16500 119244.000000
7910 13772 1 0.16500 119244.000000
7910 13911 1 0.16500 119244.000000
7911 13773 1 0.16500 119244.000000
7911 16272 1 0.16500 119244.000000
7912 13773 1 0.16500 119244.000000
7912 14976 1 0.16500 119244.000000
7913 13774 1 0.16500 119244.000000
7913 13987 1 0.16500 119244.000000
7914 13774 1 0.16500 119244.000000
7914 14764 1 0.16500 119244.000000
7915 13774 1 0.16500 119244.000000
7915 15985 1 0.16500 119244.000000
7916 13775 1 0.16500 119244.000000
7916 16141 1 0.16500 119244.000000
7917 13775 1 0.16500 119244.000000
7917 15935 1 0.16500 119244.000000
7918 13776 1 0.16500 119244.000000
7918 15262 1 0.16500 119244.000000
7919 13776 1 0.16500 119244.000000
7919 14476 1 0.16500 119244.000000
7920 13776 1 0.16500 119244.000000
7920 15560 1 0.16500 119244.000000
7921 13777 1 0.16500 119244.000000
7921 14852 1 0.16500 119244.000000
7922 13777 1 0.16500 119244.000000
7922 14229 1 0.16500 119244.000000
7923 13778 1 0.16500 119244.000000
7923 15041 1 0.16500 119244.000000
7924 13778 1 0.16500 119244.000000
7924 16008 1 0.16500 119244.000000
7925 13778 1 0.16500 119244.000000
7925 13833 1 0.16500 119244.000000
7926 13779 1 0.16500 119244.000000
7926 15435 1 0.16500 119244.000000
7927 13780 1 0.16500 119244.000000
7927 16491 1 0.16500 119244.000000
7928 13780 1 0.16500 119244.000000
7928 14299 1 0.16500 119244.000000
7929 13781 1 0.16500 119244.000000
7929 16313 1 0.16500 119244.000000
7930 13781 1 0.16500 119244.000000
7930 15234 1 0.16500 119244.000000
7931 13781 1 0.16500 119244.000000
7931 13846 1 0.16500 119244.000000
7932 15936 1 0.16500 119244.000000
7932 21594 1 0.16500 119244.000000
7933 17944 1 0.16500 119244.000000
7933 21594 1 0.16500 119244.000000
7934 13782 1 0.16500 119244.000000
7934 16181 1 0.16500 119244.000000
7935 13782 1 0.16500 119244.000000
7935 15673 1 0.16500 119244.000000
7936 13782 1 0.16500 119244.000000
7936 14289 1 0.16500 119244.000000
7937 13783 1 0.16500 119244.000000
7937 15734 1 0.16500 119244.000000
7938 13783 1 0.16500 119244.000000
7938 14157 1 0.16500 119244.000000
7939 13783 1 0.16500 119244.000000
7939 14810 1 0.16500 119244.000000
7940 13784 1 0.16500 119244.000000
7940 16415 1 0.16500 119244.000000
7941 13784 1 0.16500 119244.000000
7941 14722 1 0.16500 119244.000000
7942 13785 1 0.16500 119244.000000
7942 15244 1 0.16500 119244.000000
7943 13786 1 0.16500 119244.000000
7943 14093 1 0.16500 119244.000000
7944 13786 1 0.16500 119244.000000
7944 15841 1 0.16500 119244.000000
7945 14672 1 0.16500 119244.000000
7945 21597 1 0.16500 119244.000000
7946 13787 1 0.16500 119244.000000
7946 14368 1 0.16500 119244.000000
7947 13787 1 0.16500 119244.000000
7947 15457 1 0.16500 119244.000000
7948 13787 1 0.16500 119244.000000
7948 13966 1 0.16500 119244.000000
7949 13788 1 0.16500 119244.000000
7949 15859 1 0.16500 119244.000000
7950 13789 1 0.16500 119244.000000
7950 15075 1 0.16500 119244.000000
7951 13790 1 0.16500 119244.000000
7951 16253 1 0.16500 119244.000000
7952 13790 1 0.16500 119244.000000
7952 15136 1 0.16500 119244.000000
7953 12899 1 0.16500 119244.000000
7953 13790 1 0.16500 119244.000000
7954 13791 1 0.16500 119244.000000
7954 16352 1 0.16500 119244.000000
7955 13792 1 0.16500 119244.000000
7955 16325 1 0.16500 119244.000000
7956 21600 1 0.16500 119244.000000
7956 22146 1 0.16500 119244.000000
7957 13793 1 0.16500 119244.000000
7957 16251 1 0.16500 119244.000000
7958 13793 1 0.16500 119244.000000
7958 14245 1 0.16500 119244.000000
7959 13793 1 0.16500 119244.000000
7959 15409 1 0.16500 119244.000000
7960 13794 1 0.16500 119244.000000
7960 15086 1 0.16500 119244.000000
7961 13794 1 0.16500 119244.000000
7961 16364 1 0.16500 119244.000000
7962 13795 1 0.16500 119244.000000
7962 16442 1 0.16500 119244.000000
7963 13796 1 0.16500 119244.000000
7963 15812 1 0.16500 119244.000000
7964 13796 1 0.16500 119244.000000
7964 15551 1 0.16500 119244.000000
7965 13796 1 0.16500 119244.000000
7965 16033 1 0.16500 119244.000000
7966 13796 1 0.16500 119244.000000
7966 15439 1 0.16500 119244.000000
7967 13797 1 0.16500 119244.000000
7967 15472 1 0.16500 119244.000000
7968 13797 1 0.16500 119244.000000
7968 13997 1 0.16500 119244.000000
7969 13799 1 0.16500 119244.000000
7969 15096 1 0.16500 119244.000000
7970 13799 1 0.16500 119244.000000
7970 15143 1 0.16500 119244.000000
7971 13799 1 0.16500 119244.000000
7971 14880 1 0.16500 119244.000000
7972 16348 1 0.16500 119244.000000
7972 16385 1 0.16500 119244.000000
7973 14580 1 0.16500 119244.000000
7973 16348 1 0.16500 119244.000000
7974 13800 1 0.16500 119244.000000
7974 16348 1 0.16500 119244.000000
7975 13801 1 0.16500 119244.000000
7975 15794 1 0.16500 119244.000000
7976 13801 1 0.16500 119244.000000
7976 14654 1 0.16500 119244.000000
7977 13802 1 0.16500 119244.000000
7977 14464 1 0.16500 119244.000000
7978 13803 1 0.16500 119244.000000
7978 22317 1 0.16500 119244.000000
7979 13803 1 0.16500 119244.000000
7979 22092 1 0.16500 119244.000000
7980 13803 1 0.16500 119244.000000
7980 16754 1 0.16500 119244.000000
7981 13804 1 0.16500 119244.000000
7981 17538 1 0.16500 119244.000000
7982 13805 1 0.16500 119244.000000
7982 16127 1 0.16500 119244.000000
7983 13805 1 0.16500 119244.000000
7983 15650 1 0.16500 119244.000000
7984 13806 1 0.16500 119244.000000
7984 16448 1 0.16500 119244.000000
7985 13806 1 0.16500 119244.000000
7985 14708 1 0.16500 119244.000000
7986 13807 1 0.16500 119244.000000
7986 14923 1 0.16500 119244.000000
7987 13807 1 0.16500 119244.000000
7987 15504 1 0.16500 119244.000000
7988 13807 1 0.16500 119244.000000
7988 16407 1 0.16500 119244.000000
7989 13808 1 0.16500 119244.000000
7989 14255 1 0.16500 119244.000000
7990 13808 1 0.16500 119244.000000
7990 22332 1 0.16500 119244.000000
7991 13808 1 0.16500 119244.000000
7991 22302 1 0.16500 119244.000000
7992 13809 1 0.16500 119244.000000
7992 15281 1 0.16500 119244.000000
7993 13809 1 0.16500 119244.000000
7993 14346 1 0.16500 119244.000000
7994 13810 1 0.16500 119244.000000
7994 15860 1 0.16500 119244.000000
7995 13811 1 0.16500 119244.000000
7995 14847 1 0.16500 119244.000000
7996 13811 1 0.16500 119244.000000
7996 14784 1 0.16500 119244.000000
7997 13811 1 0.16500 119244.000000
7997 15693 1 0.16500 119244.000000
7998 13812 1 0.16500 119244.000000
7998 15919 1 0.16500 119244.000000
7999 13812 1 0.16500 119244.000000
7999 14051 1 0.16500 119244.000000
8000 13812 1 0.16500 119244.000000
8000 14727 1 0.16500 119244.000000
8001 13814 1 0.16500 119244.000000
8001 14504 1 0.16500 119244.000000
8002 13814 1 0.16500 119244.000000
8002 14545 1 0.16500 119244.000000
8003 13814 1 0.16500 119244.000000
8003 15757 1 0.16500 119244.000000
8004 13815 1 0.16500 119244.000000
8004 14901 1 0.16500 119244.000000
8005 13815 1 0.16500 119244.000000
8005 15134 1 0.16500 119244.000000
8006 13815 1 0.16500 119244.000000
8006 15976 1 0.16500 119244.000000
8007 13815 1 0.16500 119244.000000
8007 14052 1 0.16500 119244.000000
8008 13816 1 0.16500 119244.000000
8008 15605 1 0.16500 119244.000000
8009 13816 1 0.16500 119244.000000
8009 14584 1 0.16500 119244.000000
8010 13817 1 0.16500 119244.000000
8010 13976 1 0.16500 119244.000000
8011 13817 1 0.16500 119244.000000
8011 21789 1 0.16500 119244.000000
8012 15755 1 0.16500 119244.000000
8012 16572 1 0.16500 119244.000000
8013 16235 1 0.16500 119244.000000
8013 16572 1 0.16500 119244.000000
8014 13601 1 0.16500 119244.000000
8014 13818 1 0.16500 119244.000000
8015 13819 1 0.16500 119244.000000
8015 16174 1 0.16500 119244.000000
8016 13819 1 0.16500 119244.000000
8016 14269 1 0.16500 119244.000000
8017 13819 1 0.16500 119244.000000
8017 16461 1 0.16500 119244.000000
8018 13819 1 0.16500 119244.000000
8018 14749 1 0.16500 119244.000000
8019 13820 1 0.16500 119244.000000
8019 15436 1 0.16500 119244.000000
8020 13820 1 0.16500 119244.000000
8020 16438 1 0.16500 119244.000000
8021 13820 1 0.16500 119244.000000
8021 14397 1 0.16500 119244.000000
8022 13122 1 0.16500 119244.000000
8022 13820 1 0.16500 119244.000000
8023 13821 1 0.16500 119244.000000
8023 15324 1 0.16500 119244.000000
8024 13821 1 0.16500 119244.000000
8024 14871 1 0.16500 119244.000000
8025 13822 1 0.16500 119244.000000
8025 16363 1 0.16500 119244.000000
8026 13822 1 0.16500 119244.000000
8026 15830 1 0.16500 119244.000000
8027 13822 1 0.16500 119244.000000
8027 15287 1 0.16500 119244.000000
8028 13823 1 0.16500 119244.000000
8028 16209 1 0.16500 119244.000000
8029 13824 1 0.16500 119244.000000
8029 13950 1 0.16500 119244.000000
8030 13824 1 0.16500 119244.000000
8030 16466 1 0.16500 119244.000000
8031 13824 1 0.16500 119244.000000
8031 14156 1 0.16500 119244.000000
8032 13824 1 0.16500 119244.000000
8032 15739 1 0.16500 119244.000000
8033 13825 1 0.16500 119244.000000
8033 14333 1 0.16500 119244.000000
8034 13825 1 0.16500 119244.000000
8034 14368 1 0.16500 119244.000000
8035 13825 1 0.16500 119244.000000
8035 14822 1 0.16500 119244.000000
8036 13826 1 0.16500 119244.000000
8036 14455 1 0.16500 119244.000000
8037 13826 1 0.16500 119244.000000
8037 15088 1 0.16500 119244.000000
8038 13827 1 0.16500 119244.000000
8038 15633 1 0.16500 119244.000000
8039 13827 1 0.16500 119244.000000
8039 15525 1 0.16500 119244.000000
8040 13828 1 0.16500 119244.000000
8040 15265 1 0.16500 119244.000000
8041 13828 1 0.16500 119244.000000
8041 14080 1 0.16500 119244.000000
8042 13829 1 0.16500 119244.000000
8042 13930 1 0.16500 119244.000000
8043 14999 1 0.16500 119244.000000
8043 16586 1 0.16500 119244.000000
8044 14999 1 0.16500 119244.000000
8044 22071 1 0.16500 119244.000000
8045 16936 1 0.16500 119244.000000
8045 21606 1 0.16500 119244.000000
8046 13830 1 0.16500 119244.000000
8046 16323 1 0.16500 119244.000000
8047 13831 1 0.16500 119244.000000
8047 15667 1 0.16500 119244.000000
8048 13831 1 0.16500 119244.000000
8048 15671 1 0.16500 119244.000000
8049 13832 1 0.16500 119244.000000
8049 15105 1 0.16500 119244.000000
8050 13832 1 0.16500 119244.000000
8050 15780 1 0.16500 119244.000000
8051 13833 1 0.16500 119244.000000
8051 14391 1 0.16500 119244.000000
8052 13833 1 0.16500 119244.000000
8052 13885 1 0.16500 119244.000000
8053 13835 1 0.16500 119244.000000
8053 15267 1 0.16500 119244.000000
8054 13835 1 0.16500 119244.000000
8054 22095 1 0.16500 119244.000000
8055 13836 1 0.16500 119244.000000
8055 14965 1 0.16500 119244.000000
8056 13836 1 0.16500 119244.000000
8056 14399 1 0.16500 119244.000000
8057 11786 1 0.16500 119244.000000
8057 13836 1 0.16500 119244.000000
8058 13837 1 0.16500 119244.000000
8058 21828 1 0.16500 119244.000000
8059 13837 1 0.16500 119244.000000
8059 15350 1 0.16500 119244.000000
8060 13838 1 0.16500 119244.000000
8060 15344 1 0.16500 119244.000000
8061 13838 1 0.16500 119244.000000
8061 14613 1 0.16500 119244.000000
8062 13839 1 0.16500 119244.000000
8062 14776 1 0.16500 119244.000000
8063 13840 1 0.16500 119244.000000
8063 15729 1 0.16500 119244.000000
8064 13841 1 0.16500 119244.000000
8064 15993 1 0.16500 119244.000000
8065 13841 1 0.16500 119244.000000
8065 16092 1 0.16500 119244.000000
8066 13841 1 0.16500 119244.000000
8066 14392 1 0.16500 119244.000000
8067 16600 1 0.16500 119244.000000
8067 22209 1 0.16500 119244.000000
8068 13842 1 0.16500 119244.000000
8068 14072 1 0.16500 119244.000000
8069 13842 1 0.16500 119244.000000
8069 15440 1 0.16500 119244.000000
8070 13843 1 0.16500 119244.000000
8070 15050 1 0.16500 119244.000000
8071 13843 1 0.16500 119244.000000
8071 14288 1 0.16500 119244.000000
8072 13844 1 0.16500 119244.000000
8072 15434 1 0.16500 119244.000000
8073 13845 1 0.16500 119244.000000
8073 16302 1 0.16500 119244.000000
8074 13846 1 0.16500 119244.000000
8074 15056 1 0.16500 119244.000000
8075 13847 1 0.16500 119244.000000
8075 14226 1 0.16500 119244.000000
8076 13847 1 0.16500 119244.000000
8076 14945 1 0.16500 119244.000000
8077 13847 1 0.16500 119244.000000
8077 15611 1 0.16500 119244.000000
8078 13848 1 0.16500 119244.000000
8078 14036 1 0.16500 119244.000000
8079 13848 1 0.16500 119244.000000
8079 15146 1 0.16500 119244.000000
8080 13848 1 0.16500 119244.000000
8080 14833 1 0.16500 119244.000000
8081 21609 1 0.16500 119244.000000
8081 22356 1 0.16500 119244.000000
8082 13849 1 0.16500 119244.000000
8082 15396 1 0.16500 119244.000000
8083 13849 1 0.16500 119244.000000
8083 14993 1 0.16500 119244.000000
8084 13491 1 0.16500 119244.000000
8084 21717 1 0.16500 119244.000000
8085 13850 1 0.16500 119244.000000
8085 15228 1 0.16500 119244.000000
8086 13850 1 0.16500 119244.000000
8086 14689 1 0.16500 119244.000000
8087 13851 1 0.16500 119244.000000
8087 15153 1 0.16500 119244.000000
8088 13851 1 0.16500 119244.000000
8088 15098 1 0.16500 119244.000000
8089 14452 1 0.16500 119244.000000
8089 21612 1 0.16500 119244.000000
8090 12606 1 0.16500 119244.000000
8090 21612 1 0.16500 119244.000000
8091 21615 1 0.16500 119244.000000
8091 21810 1 0.16500 119244.000000
8092 14768 1 0.16500 119244.000000
8092 21615 1 0.16500 119244.000000
8093 16866 1 0.16500 119244.000000
8093 21615 1 0.16500 119244.000000
8094 13852 1 0.16500 119244.000000
8094 14201 1 0.16500 119244.000000
8095 13852 1 0.16500 119244.000000
8095 17580 1 0.16500 119244.000000
8096 13853 1 0.16500 119244.000000
8096 15692 1 0.16500 119244.000000
8097 13853 1 0.16500 119244.000000
8097 22444 1 0.16500 119244.000000
8098 13854 1 0.16500 119244.000000
8098 16002 1 0.16500 119244.000000
8099 15581 1 0.16500 119244.000000
8099 15921 1 0.16500 119244.000000
8100 13854 1 0.16500 119244.000000
8100 14061 1 0.16500 119244.000000
8101 13854 1 0.16500 119244.000000
8101 15921 1 0.16500 119244.000000
8102 13855 1 0.16500 119244.000000
8102 14808 1 0.16500 119244.000000
8103 13855 1 0.16500 119244.000000
8103 15902 1 0.16500 119244.000000
8104 13855 1 0.16500 119244.000000
8104 13961 1 0.16500 119244.000000
8105 14363 1 0.16500 119244.000000
8105 15704 1 0.16500 119244.000000
8106 14363 1 0.16500 119244.000000
8106 21618 1 0.16500 119244.000000
8107 13858 1 0.16500 119244.000000
8107 15620 1 0.16500 119244.000000
8108 13859 1 0.16500 119244.000000
8108 14748 1 0.16500 119244.000000
8109 13859 1 0.16500 119244.000000
8109 15884 1 0.16500 119244.000000
8110 13859 1 0.16500 119244.000000
8110 16339 1 0.16500 119244.000000
8111 13860 1 0.16500 119244.000000
8111 21855 1 0.16500 119244.000000
8112 13860 1 0.16500 119244.000000
8112 15880 1 0.16500 119244.000000
8113 13861 1 0.16500 119244.000000
8113 15360 1 0.16500 119244.000000
8114 13861 1 0.16500 119244.000000
8114 13869 1 0.16500 119244.000000
8115 12214 1 0.16500 119244.000000
8115 15255 1 0.16500 119244.000000
8116 13862 1 0.16500 119244.000000
8116 16381 1 0.16500 119244.000000
8117 13863 1 0.16500 119244.000000
8117 15103 1 0.16500 119244.000000
8118 13863 1 0.16500 119244.000000
8118 15349 1 0.16500 119244.000000
8119 13864 1 0.16500 119244.000000
8119 16087 1 0.16500 119244.000000
8120 13864 1 0.16500 119244.000000
8120 15760 1 0.16500 119244.000000
8121 13864 1 0.16500 119244.000000
8121 16017 1 0.16500 119244.000000
8122 13476 1 0.16500 119244.000000
8122 13865 1 0.16500 119244.000000
8123 13866 1 0.16500 119244.000000
8123 15980 1 0.16500 119244.000000
8124 13866 1 0.16500 119244.000000
8124 16150 1 0.16500 119244.000000
8125 13867 1 0.16500 119244.000000
8125 14074 1 0.16500 119244.000000
8126 13867 1 0.16500 119244.000000
8126 16053 1 0.16500 119244.000000
8127 13868 1 0.16500 119244.000000
8127 16407 1 0.16500 119244.000000
8128 13868 1 0.16500 119244.000000
8128 15358 1 0.16500 119244.000000
8129 13868 1 0.16500 119244.000000
8129 14259 1 0.16500 119244.000000
8130 13869 1 0.16500 119244.000000
8130 16130 1 0.16500 119244.000000
8131 13869 1 0.16500 119244.000000
8131 14518 1 0.16500 119244.000000
8132 13870 1 0.16500 119244.000000
8132 14595 1 0.16500 119244.000000
8133 13870 1 0.16500 119244.000000
8133 16320 1 0.16500 119244.000000
8134 13871 1 0.16500 119244.000000
8134 14996 1 0.16500 119244.000000
8135 13871 1 0.16500 119244.000000
8135 14985 1 0.16500 119244.000000
8136 13872 1 0.16500 119244.000000
8136 13897 1 0.16500 119244.000000
8137 13872 1 0.16500 119244.000000
8137 14656 1 0.16500 119244.000000
8138 13872 1 0.16500 119244.000000
8138 15628 1 0.16500 119244.000000
8139 13873 1 0.16500 119244.000000
8139 16220 1 0.16500 119244.000000
8140 13873 1 0.16500 119244.000000
8140 15503 1 0.16500 119244.000000
8141 13873 1 0.16500 119244.000000
8141 15334 1 0.16500 119244.000000
8142 13874 1 0.16500 119244.000000
8142 15909 1 0.16500 119244.000000
8143 13875 1 0.16500 119244.000000
8143 14888 1 0.16500 119244.000000
8144 13875 1 0.16500 119244.000000
8144 14916 1 0.16500 119244.000000
8145 13876 1 0.16500 119244.000000
8145 16106 1 0.16500 119244.000000
8146 13877 1 0.16500 119244.000000
8146 14877 1 0.16500 119244.000000
8147 13877 1 0.16500 119244.000000
8147 16114 1 0.16500 119244.000000
8148 14313 1 0.16500 119244.000000
8148 15932 1 0.16500 119244.000000
8149 13878 1 0.16500 119244.000000
8149 15932 1 0.16500 119244.000000
8150 13708 1 0.16500 119244.000000
8150 15696 1 0.16500 119244.000000
8151 13880 1 0.16500 119244.000000
8151 14002 1 0.16500 119244.000000
8152 13880 1 0.16500 119244.000000
8152 15507 1 0.16500 119244.000000
8153 13881 1 0.16500 119244.000000
8153 14850 1 0.16500 119244.000000
8154 13882 1 0.16500 119244.000000
8154 15046 1 0.16500 119244.000000
8155 13882 1 0.16500 119244.000000
8155 15178 1 0.16500 119244.000000
8156 15046 1 0.16500 119244.000000
8156 15500 1 0.16500 119244.000000
8157 13882 1 0.16500 119244.000000
8157 14344 1 0.16500 119244.000000
8158 13883 1 0.16500 119244.000000
8158 14781 1 0.16500 119244.000000
8159 13883 1 0.16500 119244.000000
8159 16366 1 0.16500 119244.000000
8160 13884 1 0.16500 119244.000000
8160 16522 1 0.16500 119244.000000
8161 11741 1 0.16500 119244.000000
8161 14570 1 0.16500 119244.000000
8162 11741 1 0.16500 119244.000000
8162 13884 1 0.16500 119244.000000
8163 13885 1 0.16500 119244.000000
8163 14038 1 0.16500 119244.000000
8164 13885 1 0.16500 119244.000000
8164 15858 1 0.16500 119244.000000
8165 13886 1 0.16500 119244.000000
8165 15363 1 0.16500 119244.000000
8166 11734 1 0.16500 119244.000000
8166 16175 1 0.16500 119244.000000
8167 13887 1 0.16500 119244.000000
8167 16194 1 0.16500 119244.000000
8168 13888 1 0.16500 119244.000000
8168 14439 1 0.16500 119244.000000
8169 13889 1 0.16500 119244.000000
8169 14874 1 0.16500 119244.000000
8170 13889 1 0.16500 119244.000000
8170 16173 1 0.16500 119244.000000
8171 13889 1 0.16500 119244.000000
8171 14058 1 0.16500 119244.000000
8172 15219 1 0.16500 119244.000000
8172 21621 1 0.16500 119244.000000
8173 17076 1 0.16500 119244.000000
8173 21621 1 0.16500 119244.000000
8174 15619 1 0.16500 119244.000000
8174 21621 1 0.16500 119244.000000
8175 13890 1 0.16500 119244.000000
8175 14158 1 0.16500 119244.000000
8176 13890 1 0.16500 119244.000000
8176 15029 1 0.16500 119244.000000
8177 13890 1 0.16500 119244.000000
8177 14943 1 0.16500 119244.000000
8178 13890 1 0.16500 119244.000000
8178 14865 1 0.16500 119244.000000
8179 13891 1 0.16500 119244.000000
8179 15648 1 0.16500 119244.000000
8180 13891 1 0.16500 119244.000000
8180 14878 1 0.16500 119244.000000
8181 13891 1 0.16500 119244.000000
8181 14635 1 0.16500 119244.000000
8182 13891 1 0.16500 119244.000000
8182 15242 1 0.16500 119244.000000
8183 13892 1 0.16500 119244.000000
8183 15874 1 0.16500 119244.000000
8184 13892 1 0.16500 119244.000000
8184 14653 1 0.16500 119244.000000
8185 13893 1 0.16500 119244.000000
8185 15792 1 0.16500 119244.000000
8186 13894 1 0.16500 119244.000000
8186 13952 1 0.16500 119244.000000
8187 13894 1 0.16500 119244.000000
8187 16248 1 0.16500 119244.000000
8188 13894 1 0.16500 119244.000000
8188 15496 1 0.16500 119244.000000
8189 13895 1 0.16500 119244.000000
8189 15052 1 0.16500 119244.000000
8190 13895 1 0.16500 119244.000000
8190 14872 1 0.16500 119244.000000
8191 13895 1 0.16500 119244.000000
8191 15005 1 0.16500 119244.000000
8192 13896 1 0.16500 119244.000000
8192 14432 1 0.16500 119244.000000
8193 13896 1 0.16500 119244.000000
8193 14008 1 0.16500 119244.000000
8194 13896 1 0.16500 119244.000000
8194 14941 1 0.16500 119244.000000
8195 13897 1 0.16500 119244.000000
8195 14899 1 0.16500 119244.000000
8196 13897 1 0.16500 119244.000000
8196 14278 1 0.16500 119244.000000
8197 13898 1 0.16500 119244.000000
8197 15361 1 0.16500 119244.000000
8198 16614 1 0.16500 119244.000000
8198 21693 1 0.16500 119244.000000
8199 13899 1 0.16500 119244.000000
8199 13922 1 0.16500 119244.000000
8200 13899 1 0.16500 119244.000000
8200 15065 1 0.16500 119244.000000
8201 13899 1 0.16500 119244.000000
8201 16161 1 0.16500 119244.000000
8202 13900 1 0.16500 119244.000000
8202 15285 1 0.16500 119244.000000
8203 13901 1 0.16500 119244.000000
8203 14485 1 0.16500 119244.000000
8204 13901 1 0.16500 119244.000000
8204 14433 1 0.16500 119244.000000
8205 13902 1 0.16500 119244.000000
8205 16210 1 0.16500 119244.000000
8206 13902 1 0.16500 119244.000000
8206 16419 1 0.16500 119244.000000
8207 13902 1 0.16500 119244.000000
8207 15598 1 0.16500 119244.000000
8208 13903 1 0.16500 119244.000000
8208 15992 1 0.16500 119244.000000
8209 13903 1 0.16500 119244.000000
8209 15918 1 0.16500 119244.000000
8210 13904 1 0.16500 119244.000000
8210 16409 1 0.16500 119244.000000
8211 12405 1 0.16500 119244.000000
8211 14116 1 0.16500 119244.000000
8212 11440 1 0.16500 119244.000000
8212 12674 1 0.16500 119244.000000
8213 13906 1 0.16500 119244.000000
8213 22095 1 0.16500 119244.000000
8214 13907 1 0.16500 119244.000000
8214 15518 1 0.16500 119244.000000
8215 13907 1 0.16500 119244.000000
8215 14630 1 0.16500 119244.000000
8216 14440 1 0.16500 119244.000000
8216 16431 1 0.16500 119244.000000
8217 13908 1 0.16500 119244.000000
8217 14440 1 0.16500 119244.000000
8218 13909 1 0.16500 119244.000000
8218 16294 1 0.16500 119244.000000
8219 13909 1 0.16500 119244.000000
8219 14711 1 0.16500 119244.000000
8220 13910 1 0.16500 119244.000000
8220 15590 1 0.16500 119244.000000
8221 13911 1 0.16500 119244.000000
8221 15759 1 0.16500 119244.000000
8222 15614 1 0.16500 119244.000000
8222 16628 1 0.16500 119244.000000
8223 13912 1 0.16500 119244.000000
8223 15607 1 0.16500 119244.000000
8224 13912 1 0.16500 119244.000000
8224 15155 1 0.16500 119244.000000
8225 13912 1 0.16500 119244.000000
8225 16504 1 0.16500 119244.000000
8226 13913 1 0.16500 119244.000000
8226 16105 1 0.16500 119244.000000
8227 13913 1 0.16500 119244.000000
8227 14134 1 0.16500 119244.000000
8228 13913 1 0.16500 119244.000000
8228 16136 1 0.16500 119244.000000
8229 13915 1 0.16500 119244.000000
8229 15319 1 0.16500 119244.000000
8230 13915 1 0.16500 119244.000000
8230 16463 1 0.16500 119244.000000
8231 13915 1 0.16500 119244.000000
8231 14098 1 0.16500 119244.000000
8232 13915 1 0.16500 119244.000000
8232 14597 1 0.16500 119244.000000
8233 13916 1 0.16500 119244.000000
8233 15882 1 0.16500 119244.000000
8234 13916 1 0.16500 119244.000000
8234 18098 1 0.16500 119244.000000
8235 13917 1 0.16500 119244.000000
8235 14716 1 0.16500 119244.000000
8236 13917 1 0.16500 119244.000000
8236 16077 1 0.16500 119244.000000
8237 21624 1 0.16500 119244.000000
8237 21705 1 0.16500 119244.000000
8238 13918 1 0.16500 119244.000000
8238 16413 1 0.16500 119244.000000
8239 13918 1 0.16500 119244.000000
8239 15512 1 0.16500 119244.000000
8240 14667 1 0.16500 119244.000000
8240 16307 1 0.16500 119244.000000
8241 13919 1 0.16500 119244.000000
8241 14940 1 0.16500 119244.000000
8242 13919 1 0.16500 119244.000000
8242 16307 1 0.16500 119244.000000
8243 13920 1 0.16500 119244.000000
8243 14868 1 0.16500 119244.000000
8244 13920 1 0.16500 119244.000000
8244 14073 1 0.16500 119244.000000
8245 13920 1 0.16500 119244.000000
8245 15466 1 0.16500 119244.000000
8246 14865 1 0.16500 119244.000000
8246 21627 1 0.16500 119244.000000
8247 13921 1 0.16500 119244.000000
8247 15404 1 0.16500 119244.000000
8248 13922 1 0.16500 119244.000000
8248 14258 1 0.16500 119244.000000
8249 13923 1 0.16500 119244.000000
8249 15354 1 0.16500 119244.000000
8250 13923 1 0.16500 119244.000000
8250 16035 1 0.16500 119244.000000
8251 13923 1 0.16500 119244.000000
8251 14936 1 0.16500 119244.000000
8252 13923 1 0.16500 119244.000000
8252 14284 1 0.16500 119244.000000
8253 13924 1 0.16500 119244.000000
8253 15782 1 0.16500 119244.000000
8254 13924 1 0.16500 119244.000000
8254 14386 1 0.16500 119244.000000
8255 13924 1 0.16500 119244.000000
8255 16496 1 0.16500 119244.000000
8256 13925 1 0.16500 119244.000000
8256 15479 1 0.16500 119244.000000
8257 13925 1 0.16500 119244.000000
8257 14030 1 0.16500 119244.000000
8258 13925 1 0.16500 119244.000000
8258 14355 1 0.16500 119244.000000
8259 11817 1 0.16500 119244.000000
8259 15570 1 0.16500 119244.000000
8260 13926 1 0.16500 119244.000000
8260 15377 1 0.16500 119244.000000
8261 13926 1 0.16500 119244.000000
8261 15154 1 0.16500 119244.000000
8262 15886 1 0.16500 119244.000000
8262 21630 1 0.16500 119244.000000
8263 13927 1 0.16500 119244.000000
8263 14374 1 0.16500 119244.000000
8264 13927 1 0.16500 119244.000000
8264 15533 1 0.16500 119244.000000
8265 15280 1 0.16500 119244.000000
8265 16670 1 0.16500 119244.000000
8266 13928 1 0.16500 119244.000000
8266 15928 1 0.16500 119244.000000
8267 13928 1 0.16500 119244.000000
8267 16030 1 0.16500 119244.000000
8268 13928 1 0.16500 119244.000000
8268 16514 1 0.16500 119244.000000
8269 13929 1 0.16500 119244.000000
8269 14967 1 0.16500 119244.000000
8270 13929 1 0.16500 119244.000000
8270 16053 1 0.16500 119244.000000
8271 13929 1 0.16500 119244.000000
8271 14275 1 0.16500 119244.000000
8272 13930 1 0.16500 119244.000000
8272 15738 1 0.16500 119244.000000
8273 13931 1 0.16500 119244.000000
8273 16525 1 0.16500 119244.000000
8274 13932 1 0.16500 119244.000000
8274 15995 1 0.16500 119244.000000
8275 13933 1 0.16500 119244.000000
8275 22173 1 0.16500 119244.000000
8276 15927 1 0.16500 119244.000000
8276 16684 1 0.16500 119244.000000
8277 13225 1 0.16500 119244.000000
8277 14480 1 0.16500 119244.000000
8278 13934 1 0.16500 119244.000000
8278 15241 1 0.16500 119244.000000
8279 13225 1 0.16500 119244.000000
8279 14944 1 0.16500 119244.000000
8280 13935 1 0.16500 119244.000000
8280 16203 1 0.16500 119244.000000
8281 13936 1 0.16500 119244.000000
8281 16099 1 0.16500 119244.000000
8282 13936 1 0.16500 119244.000000
8282 14277 1 0.16500 119244.000000
8283 14277 1 0.16500 119244.000000
8283 14708 1 0.16500 119244.000000
8284 13937 1 0.16500 119244.000000
8284 15711 1 0.16500 119244.000000
8285 13937 1 0.16500 119244.000000
8285 14232 1 0.16500 119244.000000
8286 13937 1 0.16500 119244.000000
8286 14961 1 0.16500 119244.000000
8287 13937 1 0.16500 119244.000000
8287 14137 1 0.16500 119244.000000
8288 15037 1 0.16500 119244.000000
8288 16698 1 0.16500 119244.000000
8289 16698 1 0.16500 119244.000000
8289 17048 1 0.16500 119244.000000
8290 13938 1 0.16500 119244.000000
8290 18448 1 0.16500 119244.000000
8291 13938 1 0.16500 119244.000000
8291 16459 1 0.16500 119244.000000
8292 13939 1 0.16500 119244.000000
8292 15417 1 0.16500 119244.000000
8293 13939 1 0.16500 119244.000000
8293 14377 1 0.16500 119244.000000
8294 20754 1 0.16500 119244.000000
8294 21963 1 0.16500 119244.000000
8295 13940 1 0.16500 119244.000000
8295 16066 1 0.16500 119244.000000
8296 13940 1 0.16500 119244.000000
8296 17552 1 0.16500 119244.000000
8297 13941 1 0.16500 119244.000000
8297 14547 1 0.16500 119244.000000
8298 15801 1 0.16500 119244.000000
8298 21639 1 0.16500 119244.000000
8299 13942 1 0.16500 119244.000000
8299 14927 1 0.16500 119244.000000
8300 13942 1 0.16500 119244.000000
8300 14570 1 0.16500 119244.000000
8301 13942 1 0.16500 119244.000000
8301 15404 1 0.16500 119244.000000
8302 13943 1 0.16500 119244.000000
8302 14816 1 0.16500 119244.000000
8303 13943 1 0.16500 119244.000000
8303 16145 1 0.16500 119244.000000
8304 13943 1 0.16500 119244.000000
8304 22233 1 0.16500 119244.000000
8305 13944 1 0.16500 119244.000000
8305 15579 1 0.16500 119244.000000
8306 13944 1 0.16500 119244.000000
8306 14593 1 0.16500 119244.000000
8307 13945 1 0.16500 119244.000000
8307 14189 1 0.16500 119244.000000
8308 13945 1 0.16500 119244.000000
8308 16209 1 0.16500 119244.000000
8309 13946 1 0.16500 119244.000000
8309 15252 1 0.16500 119244.000000
8310 13946 1 0.16500 119244.000000
8310 16367 1 0.16500 119244.000000
8311 13946 1 0.16500 119244.000000
8311 16225 1 0.16500 119244.000000
8312 13947 1 0.16500 119244.000000
8312 16499 1 0.16500 119244.000000
8313 13947 1 0.16500 119244.000000
8313 15325 1 0.16500 119244.000000
8314 12977 1 0.16500 119244.000000
8314 16223 1 0.16500 119244.000000
8315 14801 1 0.16500 119244.000000
8315 15325 1 0.16500 119244.000000
8316 13948 1 0.16500 119244.000000
8316 15709 1 0.16500 119244.000000
8317 13948 1 0.16500 119244.000000
8317 15164 1 0.16500 119244.000000
8318 13948 1 0.16500 119244.000000
8318 14062 1 0.16500 119244.000000
8319 13948 1 0.16500 119244.000000
8319 16392 1 0.16500 119244.000000
8320 13949 1 0.16500 119244.000000
8320 14427 1 0.16500 119244.000000
8321 13950 1 0.16500 119244.000000
8321 16070 1 0.16500 119244.000000
8322 13950 1 0.16500 119244.000000
8322 14328 1 0.16500 119244.000000
8323 13951 1 0.16500 119244.000000
8323 14594 1 0.16500 119244.000000
8324 13951 1 0.16500 119244.000000
8324 14562 1 0.16500 119244.000000
8325 13952 1 0.16500 119244.000000
8325 15043 1 0.16500 119244.000000
8326 13952 1 0.16500 119244.000000
8326 16239 1 0.16500 119244.000000
8327 13953 1 0.16500 119244.000000
8327 14738 1 0.16500 119244.000000
8328 13953 1 0.16500 119244.000000
8328 15724 1 0.16500 119244.000000
8329 13953 1 0.16500 119244.000000
8329 15365 1 0.16500 119244.000000
8330 12134 1 0.16500 119244.000000
8330 13953 1 0.16500 119244.000000
8331 17650 1 0.16500 119244.000000
8331 21642 1 0.16500 119244.000000
8332 16372 1 0.16500 119244.000000
8332 21642 1 0.16500 119244.000000
8333 13954 1 0.16500 119244.000000
8333 16117 1 0.16500 119244.000000
8334 13954 1 0.16500 119244.000000
8334 14234 1 0.16500 119244.000000
8335 13954 1 0.16500 119244.000000
8335 16168 1 0.16500 119244.000000
8336 13955 1 0.16500 119244.000000
8336 16496 1 0.16500 119244.000000
8337 13955 1 0.16500 119244.000000
8337 15502 1 0.16500 119244.000000
8338 13955 1 0.16500 119244.000000
8338 14054 1 0.16500 119244.000000
8339 13955 1 0.16500 119244.000000
8339 14944 1 0.16500 119244.000000
8340 13956 1 0.16500 119244.000000
8340 14530 1 0.16500 119244.000000
8341 13956 1 0.16500 119244.000000
8341 15408 1 0.16500 119244.000000
8342 13957 1 0.16500 119244.000000
8342 14840 1 0.16500 119244.000000
8343 13958 1 0.16500 119244.000000
8343 14047 1 0.16500 119244.000000
8344 13958 1 0.16500 119244.000000
8344 15729 1 0.16500 119244.000000
8345 13958 1 0.16500 119244.000000
8345 15757 1 0.16500 119244.000000
8346 13959 1 0.16500 119244.000000
8346 16173 1 0.16500 119244.000000
8347 13959 1 0.16500 119244.000000
8347 16395 1 0.16500 119244.000000
8348 13960 1 0.16500 119244.000000
8348 15358 1 0.16500 119244.000000
8349 13960 1 0.16500 119244.000000
8349 15084 1 0.16500 119244.000000
8350 13960 1 0.16500 119244.000000
8350 15370 1 0.16500 119244.000000
8351 13962 1 0.16500 119244.000000
8351 15125 1 0.16500 119244.000000
8352 13962 1 0.16500 119244.000000
8352 16171 1 0.16500 119244.000000
8353 13962 1 0.16500 119244.000000
8353 14040 1 0.16500 119244.000000
8354 15379 1 0.16500 119244.000000
8354 21645 1 0.16500 119244.000000
8355 13963 1 0.16500 119244.000000
8355 14959 1 0.16500 119244.000000
8356 13963 1 0.16500 119244.000000
8356 14500 1 0.16500 119244.000000
8357 13964 1 0.16500 119244.000000
8357 14486 1 0.16500 119244.000000
8358 13964 1 0.16500 119244.000000
8358 16157 1 0.16500 119244.000000
8359 13965 1 0.16500 119244.000000
8359 15077 1 0.16500 119244.000000
8360 13965 1 0.16500 119244.000000
8360 14299 1 0.16500 119244.000000
8361 13965 1 0.16500 119244.000000
8361 22320 1 0.16500 119244.000000
8362 13966 1 0.16500 119244.000000
8362 21867 1 0.16500 119244.000000
8363 13967 1 0.16500 119244.000000
8363 17832 1 0.16500 119244.000000
8364 13967 1 0.16500 119244.000000
8364 15526 1 0.16500 119244.000000
8365 13967 1 0.16500 119244.000000
8365 16271 1 0.16500 119244.000000
8366 13968 1 0.16500 119244.000000
8366 14345 1 0.16500 119244.000000
8367 13968 1 0.16500 119244.000000
8367 13994 1 0.16500 119244.000000
8368 21648 1 0.16500 119244.000000
8368 21774 1 0.16500 119244.000000
8369 13999 1 0.16500 119244.000000
8369 21648 1 0.16500 119244.000000
8370 14373 1 0.16500 119244.000000
8370 21648 1 0.16500 119244.000000
8371 16712 1 0.16500 119244.000000
8371 21690 1 0.16500 119244.000000
8372 13969 1 0.16500 119244.000000
8372 14806 1 0.16500 119244.000000
8373 16191 1 0.16500 119244.000000
8373 21624 1 0.16500 119244.000000
8374 13970 1 0.16500 119244.000000
8374 16094 1 0.16500 119244.000000
8375 13970 1 0.16500 119244.000000
8375 21960 1 0.16500 119244.000000
8376 15938 1 0.16500 119244.000000
8376 18558 1 0.16500 119244.000000
8377 13971 1 0.16500 119244.000000
8377 14457 1 0.16500 119244.000000
8378 13972 1 0.16500 119244.000000
8378 15964 1 0.16500 119244.000000
8379 13973 1 0.16500 119244.000000
8379 15735 1 0.16500 119244.000000
8380 13973 1 0.16500 119244.000000
8380 16268 1 0.16500 119244.000000
8381 14301 1 0.16500 119244.000000
8381 21651 1 0.16500 119244.000000
8382 13974 1 0.16500 119244.000000
8382 16482 1 0.16500 119244.000000
8383 11690 1 0.16500 119244.000000
8383 13974 1 0.16500 119244.000000
8384 13975 1 0.16500 119244.000000
8384 14849 1 0.16500 119244.000000
8385 13976 1 0.16500 119244.000000
8385 14265 1 0.16500 119244.000000
8386 13977 1 0.16500 119244.000000
8386 14094 1 0.16500 119244.000000
8387 13977 1 0.16500 119244.000000
8387 15920 1 0.16500 119244.000000
8388 13977 1 0.16500 119244.000000
8388 15156 1 0.16500 119244.000000
8389 13978 1 0.16500 119244.000000
8389 21771 1 0.16500 119244.000000
8390 13979 1 0.16500 119244.000000
8390 15067 1 0.16500 119244.000000
8391 13979 1 0.16500 119244.000000
8391 15215 1 0.16500 119244.000000
8392 13980 1 0.16500 119244.000000
8392 14512 1 0.16500 119244.000000
8393 13980 1 0.16500 119244.000000
8393 15468 1 0.16500 119244.000000
8394 13981 1 0.16500 119244.000000
8394 16470 1 0.16500 119244.000000
8395 13981 1 0.16500 119244.000000
8395 14359 1 0.16500 119244.000000
8396 13981 1 0.16500 119244.000000
8396 14920 1 0.16500 119244.000000
8397 13982 1 0.16500 119244.000000
8397 14317 1 0.16500 119244.000000
8398 13982 1 0.16500 119244.000000
8398 16303 1 0.16500 119244.000000
8399 13983 1 0.16500 119244.000000
8399 15767 1 0.16500 119244.000000
8400 13983 1 0.16500 119244.000000
8400 15116 1 0.16500 119244.000000
8401 13984 1 0.16500 119244.000000
8401 16342 1 0.16500 119244.000000
8402 13984 1 0.16500 119244.000000
8402 15973 1 0.16500 119244.000000
8403 13986 1 0.16500 119244.000000
8403 16009 1 0.16500 119244.000000
8404 14646 1 0.16500 119244.000000
8404 21654 1 0.16500 119244.000000
8405 18140 1 0.16500 119244.000000
8405 21654 1 0.16500 119244.000000
8406 13987 1 0.16500 119244.000000
8406 16481 1 0.16500 119244.000000
8407 13987 1 0.16500 119244.000000
8407 14241 1 0.16500 119244.000000
8408 13988 1 0.16500 119244.000000
8408 15297 1 0.16500 119244.000000
8409 13988 1 0.16500 119244.000000
8409 15108 1 0.16500 119244.000000
8410 13988 1 0.16500 119244.000000
8410 14525 1 0.16500 119244.000000
8411 13989 1 0.16500 119244.000000
8411 15795 1 0.16500 119244.000000
8412 11537 1 0.16500 119244.000000
8412 18294 1 0.16500 119244.000000
8413 13990 1 0.16500 119244.000000
8413 21732 1 0.16500 119244.000000
8414 13990 1 0.16500 119244.000000
8414 14055 1 0.16500 119244.000000
8415 13991 1 0.16500 119244.000000
8415 15014 1 0.16500 119244.000000
8416 13991 1 0.16500 119244.000000
8416 15591 1 0.16500 119244.000000
8417 13991 1 0.16500 119244.000000
8417 15827 1 0.16500 119244.000000
8418 13992 1 0.16500 119244.000000
8418 15247 1 0.16500 119244.000000
8419 13992 1 0.16500 119244.000000
8419 14145 1 0.16500 119244.000000
8420 13992 1 0.16500 119244.000000
8420 16172 1 0.16500 119244.000000
8421 12798 1 0.16500 119244.000000
8421 15310 1 0.16500 119244.000000
8422 13993 1 0.16500 119244.000000
8422 14612 1 0.16500 119244.000000
8423 13994 1 0.16500 119244.000000
8423 15674 1 0.16500 119244.000000
8424 13994 1 0.16500 119244.000000
8424 14324 1 0.16500 119244.000000
8425 13994 1 0.16500 119244.000000
8425 15305 1 0.16500 119244.000000
8426 14737 1 0.16500 119244.000000
8426 16269 1 0.16500 119244.000000
8427 13995 1 0.16500 119244.000000
8427 16269 1 0.16500 119244.000000
8428 14532 1 0.16500 119244.000000
8428 16269 1 0.16500 119244.000000
8429 15965 1 0.16500 119244.000000
8429 16229 1 0.16500 119244.000000
8430 13996 1 0.16500 119244.000000
8430 14720 1 0.16500 119244.000000
8431 13996 1 0.16500 119244.000000
8431 16229 1 0.16500 119244.000000
8432 13997 1 0.16500 119244.000000
8432 16226 1 0.16500 119244.000000
8433 13997 1 0.16500 119244.000000
8433 15135 1 0.16500 119244.000000
8434 13998 1 0.16500 119244.000000
8434 16175 1 0.16500 119244.000000
8435 13998 1 0.16500 119244.000000
8435 15168 1 0.16500 119244.000000
8436 15311 1 0.16500 119244.000000
8436 16175 1 0.16500 119244.000000
8437 14911 1 0.16500 119244.000000
8437 15546 1 0.16500 119244.000000
8438 13999 1 0.16500 119244.000000
8438 17510 1 0.16500 119244.000000
8439 13999 1 0.16500 119244.000000
8439 15546 1 0.16500 119244.000000
8440 14000 1 0.16500 119244.000000
8440 15696 1 0.16500 119244.000000
8441 14000 1 0.16500 119244.000000
8441 14488 1 0.16500 119244.000000
8442 14001 1 0.16500 119244.000000
8442 15261 1 0.16500 119244.000000
8443 14002 1 0.16500 119244.000000
8443 14755 1 0.16500 119244.000000
8444 14003 1 0.16500 119244.000000
8444 16152 1 0.16500 119244.000000
8445 14004 1 0.16500 119244.000000
8445 14036 1 0.16500 119244.000000
8446 14004 1 0.16500 119244.000000
8446 16068 1 0.16500 119244.000000
8447 14004 1 0.16500 119244.000000
8447 14828 1 0.16500 119244.000000
8448 14005 1 0.16500 119244.000000
8448 15129 1 0.16500 119244.000000
8449 14005 1 0.16500 119244.000000
8449 15708 1 0.16500 119244.000000
8450 15708 1 0.16500 119244.000000
8450 15828 1 0.16500 119244.000000
8451 14006 1 0.16500 119244.000000
8451 16071 1 0.16500 119244.000000
8452 14006 1 0.16500 119244.000000
8452 14456 1 0.16500 119244.000000
8453 14006 1 0.16500 119244.000000
8453 15283 1 0.16500 119244.000000
8454 16071 1 0.16500 119244.000000
8454 16123 1 0.16500 119244.000000
8455 14007 1 0.16500 119244.000000
8455 14968 1 0.16500 119244.000000
8456 11598 1 0.16500 119244.000000
8456 15454 1 0.16500 119244.000000
8457 14009 1 0.16500 119244.000000
8457 15621 1 0.16500 119244.000000
8458 14009 1 0.16500 119244.000000
8458 15131 1 0.16500 119244.000000
8459 16740 1 0.16500 119244.000000
8459 22152 1 0.16500 119244.000000
8460 14010 1 0.16500 119244.000000
8460 16277 1 0.16500 119244.000000
8461 14365 1 0.16500 119244.000000
8461 16277 1 0.16500 119244.000000
8462 14011 1 0.16500 119244.000000
8462 15217 1 0.16500 119244.000000
8463 14011 1 0.16500 119244.000000
8463 14635 1 0.16500 119244.000000
8464 14011 1 0.16500 119244.000000
8464 15160 1 0.16500 119244.000000
8465 14012 1 0.16500 119244.000000
8465 14658 1 0.16500 119244.000000
8466 14012 1 0.16500 119244.000000
8466 15492 1 0.16500 119244.000000
8467 14013 1 0.16500 119244.000000
8467 16443 1 0.16500 119244.000000
8468 14014 1 0.16500 119244.000000
8468 15135 1 0.16500 119244.000000
8469 13626 1 0.16500 119244.000000
8469 14014 1 0.16500 119244.000000
8470 14014 1 0.16500 119244.000000
8470 16046 1 0.16500 119244.000000
8471 14014 1 0.16500 119244.000000
8471 15372 1 0.16500 119244.000000
8472 14015 1 0.16500 119244.000000
8472 15966 1 0.16500 119244.000000
8473 16184 1 0.16500 119244.000000
8473 21657 1 0.16500 119244.000000
8474 15142 1 0.16500 119244.000000
8474 21657 1 0.16500 119244.000000
8475 14017 1 0.16500 119244.000000
8475 14956 1 0.16500 119244.000000
8476 14018 1 0.16500 119244.000000
8476 14106 1 0.16500 119244.000000
8477 14018 1 0.16500 119244.000000
8477 15861 1 0.16500 119244.000000
8478 14019 1 0.16500 119244.000000
8478 14997 1 0.16500 119244.000000
8479 14019 1 0.16500 119244.000000
8479 16476 1 0.16500 119244.000000
8480 14019 1 0.16500 119244.000000
8480 16457 1 0.16500 119244.000000
8481 14020 1 0.16500 119244.000000
8481 14496 1 0.16500 119244.000000
8482 14020 1 0.16500 119244.000000
8482 15342 1 0.16500 119244.000000
8483 14021 1 0.16500 119244.000000
8483 21807 1 0.16500 119244.000000
8484 14022 1 0.16500 119244.000000
8484 14104 1 0.16500 119244.000000
8485 14022 1 0.16500 119244.000000
8485 14848 1 0.16500 119244.000000
8486 14023 1 0.16500 119244.000000
8486 16049 1 0.16500 119244.000000
8487 14023 1 0.16500 119244.000000
8487 14828 1 0.16500 119244.000000
8488 14023 1 0.16500 119244.000000
8488 16325 1 0.16500 119244.000000
8489 14024 1 0.16500 119244.000000
8489 14871 1 0.16500 119244.000000
8490 14024 1 0.16500 119244.000000
8490 15996 1 0.16500 119244.000000
8491 14024 1 0.16500 119244.000000
8491 14764 1 0.16500 119244.000000
8492 15871 1 0.16500 119244.000000
8492 21660 1 0.16500 119244.000000
8493 14025 1 0.16500 119244.000000
8493 21999 1 0.16500 119244.000000
8494 14025 1 0.16500 119244.000000
8494 14908 1 0.16500 119244.000000
8495 14026 1 0.16500 119244.000000
8495 16053 1 0.16500 119244.000000
8496 14026 1 0.16500 119244.000000
8496 14748 1 0.16500 119244.000000
8497 15187 1 0.16500 119244.000000
8497 18126 1 0.16500 119244.000000
8498 14027 1 0.16500 119244.000000
8498 22080 1 0.16500 119244.000000
8499 14364 1 0.16500 119244.000000
8499 15187 1 0.16500 119244.000000
8500 14027 1 0.16500 119244.000000
8500 15187 1 0.16500 119244.000000
8501 14385 1 0.16500 119244.000000
8501 16754 1 0.16500 119244.000000
8502 14028 1 0.16500 119244.000000
8502 14671 1 0.16500 119244.000000
8503 14028 1 0.16500 119244.000000
8503 14367 1 0.16500 119244.000000
8504 14028 1 0.16500 119244.000000
8504 14123 1 0.16500 119244.000000
8505 12187 1 0.16500 119244.000000
8505 15414 1 0.16500 119244.000000
8506 12187 1 0.16500 119244.000000
8506 14044 1 0.16500 119244.000000
8507 14030 1 0.16500 119244.000000
8507 15204 1 0.16500 119244.000000
8508 14031 1 0.16500 119244.000000
8508 15444 1 0.16500 119244.000000
8509 14031 1 0.16500 119244.000000
8509 15905 1 0.16500 119244.000000
8510 14031 1 0.16500 119244.000000
8510 15375 1 0.16500 119244.000000
8511 21666 1 0.16500 119244.000000
8511 22424 1 0.16500 119244.000000
8512 15568 1 0.16500 119244.000000
8512 21666 1 0.16500 119244.000000
8513 14032 1 0.16500 119244.000000
8513 15106 1 0.16500 119244.000000
8514 14033 1 0.16500 119244.000000
8514 15628 1 0.16500 119244.000000
8515 14033 1 0.16500 119244.000000
8515 14839 1 0.16500 119244.000000
8516 14033 1 0.16500 119244.000000
8516 16392 1 0.16500 119244.000000
8517 14034 1 0.16500 119244.000000
8517 16305 1 0.16500 119244.000000
8518 14035 1 0.16500 119244.000000
8518 16511 1 0.16500 119244.000000
8519 14036 1 0.16500 119244.000000
8519 15156 1 0.16500 119244.000000
8520 21669 1 0.16500 119244.000000
8520 22404 1 0.16500 119244.000000
8521 14037 1 0.16500 119244.000000
8521 14622 1 0.16500 119244.000000
8522 14037 1 0.16500 119244.000000
8522 15970 1 0.16500 119244.000000
8523 14038 1 0.16500 119244.000000
8523 14849 1 0.16500 119244.000000
8524 14038 1 0.16500 119244.000000
8524 16506 1 0.16500 119244.000000
8525 11404 1 0.16500 119244.000000
8525 14405 1 0.16500 119244.000000
8526 11404 1 0.16500 119244.000000
8526 14678 1 0.16500 119244.000000
8527 11404 1 0.16500 119244.000000
8527 14273 1 0.16500 119244.000000
8528 14040 1 0.16500 119244.000000
8528 14106 1 0.16500 119244.000000
8529 14040 1 0.16500 119244.000000
8529 14692 1 0.16500 119244.000000
8530 14041 1 0.16500 119244.000000
8530 14305 1 0.16500 119244.000000
8531 14041 1 0.16500 119244.000000
8531 15778 1 0.16500 119244.000000
8532 14042 1 0.16500 119244.000000
8532 16236 1 0.16500 119244.000000
8533 14042 1 0.16500 119244.000000
8533 15386 1 0.16500 119244.000000
8534 14042 1 0.16500 119244.000000
8534 16321 1 0.16500 119244.000000
8535 14043 1 0.16500 119244.000000
8535 15899 1 0.16500 119244.000000
8536 14043 1 0.16500 119244.000000
8536 15266 1 0.16500 119244.000000
8537 14043 1 0.16500 119244.000000
8537 16202 1 0.16500 119244.000000
8538 14044 1 0.16500 119244.000000
8538 16131 1 0.16500 119244.000000
8539 14044 1 0.16500 119244.000000
8539 14372 1 0.16500 119244.000000
8540 14045 1 0.16500 119244.000000
8540 16081 1 0.16500 119244.000000
8541 14045 1 0.16500 119244.000000
8541 15522 1 0.16500 119244.000000
8542 14045 1 0.16500 119244.000000
8542 16400 1 0.16500 119244.000000
8543 14046 1 0.16500 119244.000000
8543 14810 1 0.16500 119244.000000
8544 14046 1 0.16500 119244.000000
8544 15912 1 0.16500 119244.000000
8545 14046 1 0.16500 119244.000000
8545 14157 1 0.16500 119244.000000
8546 14047 1 0.16500 119244.000000
8546 15273 1 0.16500 119244.000000
8547 14048 1 0.16500 119244.000000
8547 15098 1 0.16500 119244.000000
8548 14048 1 0.16500 119244.000000
8548 15512 1 0.16500 119244.000000
8549 14048 1 0.16500 119244.000000
8549 14274 1 0.16500 119244.000000
8550 15853 1 0.16500 119244.000000
8550 16796 1 0.16500 119244.000000
8551 14049 1 0.16500 119244.000000
8551 14798 1 0.16500 119244.000000
8552 14049 1 0.16500 119244.000000
8552 15123 1 0.16500 119244.000000
8553 14049 1 0.16500 119244.000000
8553 14689 1 0.16500 119244.000000
8554 14051 1 0.16500 119244.000000
8554 16428 1 0.16500 119244.000000
8555 14051 1 0.16500 119244.000000
8555 14081 1 0.16500 119244.000000
8556 14052 1 0.16500 119244.000000
8556 16299 1 0.16500 119244.000000
8557 14052 1 0.16500 119244.000000
8557 16388 1 0.16500 119244.000000
8558 14053 1 0.16500 119244.000000
8558 14959 1 0.16500 119244.000000
8559 14053 1 0.16500 119244.000000
8559 16283 1 0.16500 119244.000000
8560 14054 1 0.16500 119244.000000
8560 15908 1 0.16500 119244.000000
8561 14054 1 0.16500 119244.000000
8561 16023 1 0.16500 119244.000000
8562 15490 1 0.16500 119244.000000
8562 16810 1 0.16500 119244.000000
8563 14055 1 0.16500 119244.000000
8563 16301 1 0.16500 119244.000000
8564 14056 1 0.16500 119244.000000
8564 16303 1 0.16500 119244.000000
8565 14056 1 0.16500 119244.000000
8565 15298 1 0.16500 119244.000000
8566 14057 1 0.16500 119244.000000
8566 16028 1 0.16500 119244.000000
8567 14058 1 0.16500 119244.000000
8567 15154 1 0.16500 119244.000000
8568 14059 1 0.16500 119244.000000
8568 14605 1 0.16500 119244.000000
8569 14059 1 0.16500 119244.000000
8569 22182 1 0.16500 119244.000000
8570 14060 1 0.16500 119244.000000
8570 15213 1 0.16500 119244.000000
8571 14060 1 0.16500 119244.000000
8571 16491 1 0.16500 119244.000000
8572 14060 1 0.16500 119244.000000
8572 15730 1 0.16500 119244.000000
8573 14436 1 0.16500 119244.000000
8573 21672 1 0.16500 119244.000000
8574 15977 1 0.16500 119244.000000
8574 21672 1 0.16500 119244.000000
8575 14062 1 0.16500 119244.000000
8575 15235 1 0.16500 119244.000000
8576 14063 1 0.16500 119244.000000
8576 16296 1 0.16500 119244.000000
8577 14063 1 0.16500 119244.000000
8577 15772 1 0.16500 119244.000000
8578 14063 1 0.16500 119244.000000
8578 16330 1 0.16500 119244.000000
8579 14063 1 0.16500 119244.000000
8579 14139 1 0.16500 119244.000000
8580 14064 1 0.16500 119244.000000
8580 15671 1 0.16500 119244.000000
8581 11816 1 0.16500 119244.000000
8581 14064 1 0.16500 119244.000000
8582 14065 1 0.16500 119244.000000
8582 15244 1 0.16500 119244.000000
8583 14066 1 0.16500 119244.000000
8583 15977 1 0.16500 119244.000000
8584 14066 1 0.16500 119244.000000
8584 15513 1 0.16500 119244.000000
8585 11628 1 0.16500 119244.000000
8585 14066 1 0.16500 119244.000000
8586 14067 1 0.16500 119244.000000
8586 15020 1 0.16500 119244.000000
8587 14067 1 0.16500 119244.000000
8587 15217 1 0.16500 119244.000000
8588 14068 1 0.16500 119244.000000
8588 16039 1 0.16500 119244.000000
8589 14068 1 0.16500 119244.000000
8589 15498 1 0.16500 119244.000000
8590 14069 1 0.16500 119244.000000
8590 15582 1 0.16500 119244.000000
8591 14069 1 0.16500 119244.000000
8591 15082 1 0.16500 119244.000000
8592 14069 1 0.16500 119244.000000
8592 15428 1 0.16500 119244.000000
8593 12866 1 0.16500 119244.000000
8593 14603 1 0.16500 119244.000000
8594 14070 1 0.16500 119244.000000
8594 14108 1 0.16500 119244.000000
8595 14070 1 0.16500 119244.000000
8595 16323 1 0.16500 119244.000000
8596 14071 1 0.16500 119244.000000
8596 15637 1 0.16500 119244.000000
8597 14071 1 0.16500 119244.000000
8597 15713 1 0.16500 119244.000000
8598 14071 1 0.16500 119244.000000
8598 16036 1 0.16500 119244.000000
8599 14072 1 0.16500 119244.000000
8599 15029 1 0.16500 119244.000000
8600 14072 1 0.16500 119244.000000
8600 15488 1 0.16500 119244.000000
8601 14072 1 0.16500 119244.000000
8601 14417 1 0.16500 119244.000000
8602 14073 1 0.16500 119244.000000
8602 14745 1 0.16500 119244.000000
8603 14073 1 0.16500 119244.000000
8603 16265 1 0.16500 119244.000000
8604 14075 1 0.16500 119244.000000
8604 15100 1 0.16500 119244.000000
8605 14076 1 0.16500 119244.000000
8605 16310 1 0.16500 119244.000000
8606 14076 1 0.16500 119244.000000
8606 16107 1 0.16500 119244.000000
8607 14076 1 0.16500 119244.000000
8607 16398 1 0.16500 119244.000000
8608 14076 1 0.16500 119244.000000
8608 15805 1 0.16500 119244.000000
8609 13919 1 0.16500 119244.000000
8609 14077 1 0.16500 119244.000000
8610 14078 1 0.16500 119244.000000
8610 16100 1 0.16500 119244.000000
8611 14078 1 0.16500 119244.000000
8611 15837 1 0.16500 119244.000000
8612 11858 1 0.16500 119244.000000
8612 16133 1 0.16500 119244.000000
8613 14079 1 0.16500 119244.000000
8613 16093 1 0.16500 119244.000000
8614 14079 1 0.16500 119244.000000
8614 15837 1 0.16500 119244.000000
8615 14080 1 0.16500 119244.000000
8615 15089 1 0.16500 119244.000000
8616 14080 1 0.16500 119244.000000
8616 14544 1 0.16500 119244.000000
8617 16824 1 0.16500 119244.000000
8617 17776 1 0.16500 119244.000000
8618 14705 1 0.16500 119244.000000
8618 16824 1 0.16500 119244.000000
8619 14081 1 0.16500 119244.000000
8619 22284 1 0.16500 119244.000000
8620 14081 1 0.16500 119244.000000
8620 15007 1 0.16500 119244.000000
8621 16838 1 0.16500 119244.000000
8621 22068 1 0.16500 119244.000000
8622 11524 1 0.16500 119244.000000
8622 14858 1 0.16500 119244.000000
8623 14082 1 0.16500 119244.000000
8623 14468 1 0.16500 119244.000000
8624 14082 1 0.16500 119244.000000
8624 15552 1 0.16500 119244.000000
8625 14083 1 0.16500 119244.000000
8625 15868 1 0.16500 119244.000000
8626 14084 1 0.16500 119244.000000
8626 15041 1 0.16500 119244.000000
8627 14084 1 0.16500 119244.000000
8627 16461 1 0.16500 119244.000000
8628 14084 1 0.16500 119244.000000
8628 14106 1 0.16500 119244.000000
8629 14084 1 0.16500 119244.000000
8629 15125 1 0.16500 119244.000000
8630 14085 1 0.16500 119244.000000
8630 15815 1 0.16500 119244.000000
8631 14086 1 0.16500 119244.000000
8631 14227 1 0.16500 119244.000000
8632 14086 1 0.16500 119244.000000
8632 14552 1 0.16500 119244.000000
8633 14086 1 0.16500 119244.000000
8633 15596 1 0.16500 119244.000000
8634 18084 1 0.16500 119244.000000
8634 21675 1 0.16500 119244.000000
8635 17132 1 0.16500 119244.000000
8635 21675 1 0.16500 119244.000000
8636 15517 1 0.16500 119244.000000
8636 21675 1 0.16500 119244.000000
8637 14869 1 0.16500 119244.000000
8637 14945 1 0.16500 119244.000000
8638 14685 1 0.16500 119244.000000
8638 14945 1 0.16500 119244.000000
8639 14087 1 0.16500 119244.000000
8639 14945 1 0.16500 119244.000000
8640 14088 1 0.16500 119244.000000
8640 15954 1 0.16500 119244.000000
8641 14089 1 0.16500 119244.000000
8641 15437 1 0.16500 119244.000000
8642 14089 1 0.16500 119244.000000
8642 14191 1 0.16500 119244.000000
8643 14090 1 0.16500 119244.000000
8643 15242 1 0.16500 119244.000000
8644 14090 1 0.16500 119244.000000
8644 15465 1 0.16500 119244.000000
8645 14091 1 0.16500 119244.000000
8645 14977 1 0.16500 119244.000000
8646 14091 1 0.16500 119244.000000
8646 14988 1 0.16500 119244.000000
8647 16064 1 0.16500 119244.000000
8647 21678 1 0.16500 119244.000000
8648 16091 1 0.16500 119244.000000
8648 21678 1 0.16500 119244.000000
8649 14092 1 0.16500 119244.000000
8649 15087 1 0.16500 119244.000000
8650 14092 1 0.16500 119244.000000
8650 15668 1 0.16500 119244.000000
8651 14093 1 0.16500 119244.000000
8651 15584 1 0.16500 119244.000000
8652 14094 1 0.16500 119244.000000
8652 14498 1 0.16500 119244.000000
8653 14095 1 0.16500 119244.000000
8653 15849 1 0.16500 119244.000000
8654 14095 1 0.16500 119244.000000
8654 15117 1 0.16500 119244.000000
8655 14096 1 0.16500 119244.000000
8655 15071 1 0.16500 119244.000000
8656 14096 1 0.16500 119244.000000
8656 16079 1 0.16500 119244.000000
8657 14097 1 0.16500 119244.000000
8657 14894 1 0.16500 119244.000000
8658 14097 1 0.16500 119244.000000
8658 21792 1 0.16500 119244.000000
8659 14098 1 0.16500 119244.000000
8659 15198 1 0.16500 119244.000000
8660 14099 1 0.16500 119244.000000
8660 14497 1 0.16500 119244.000000
8661 14099 1 0.16500 119244.000000
8661 15750 1 0.16500 119244.000000
8662 14100 1 0.16500 119244.000000
8662 15014 1 0.16500 119244.000000
8663 14100 1 0.16500 119244.000000
8663 16276 1 0.16500 119244.000000
8664 12999 1 0.16500 119244.000000
8664 14100 1 0.16500 119244.000000
8665 14100 1 0.16500 119244.000000
8665 14582 1 0.16500 119244.000000
8666 14190 1 0.16500 119244.000000
8666 16254 1 0.16500 119244.000000
8667 14190 1 0.16500 119244.000000
8667 15004 1 0.16500 119244.000000
8668 14101 1 0.16500 119244.000000
8668 15332 1 0.16500 119244.000000
8669 14102 1 0.16500 119244.000000
8669 15278 1 0.16500 119244.000000
8670 14103 1 0.16500 119244.000000
8670 16359 1 0.16500 119244.000000
8671 14103 1 0.16500 119244.000000
8671 16256 1 0.16500 119244.000000
8672 16460 1 0.16500 119244.000000
8672 21681 1 0.16500 119244.000000
8673 14105 1 0.16500 119244.000000
8673 14955 1 0.16500 119244.000000
8674 14105 1 0.16500 119244.000000
8674 14171 1 0.16500 119244.000000
8675 11395 1 0.16500 119244.000000
8675 14107 1 0.16500 119244.000000
8676 14107 1 0.16500 119244.000000
8676 16234 1 0.16500 119244.000000
8677 14107 1 0.16500 119244.000000
8677 15413 1 0.16500 119244.000000
8678 14108 1 0.16500 119244.000000
8678 14735 1 0.16500 119244.000000
8679 15148 1 0.16500 119244.000000
8679 15732 1 0.16500 119244.000000
8680 14109 1 0.16500 119244.000000
8680 15732 1 0.16500 119244.000000
8681 14110 1 0.16500 119244.000000
8681 15102 1 0.16500 119244.000000
8682 14110 1 0.16500 119244.000000
8682 15201 1 0.16500 119244.000000
8683 14110 1 0.16500 119244.000000
8683 15810 1 0.16500 119244.000000
8684 14110 1 0.16500 119244.000000
8684 14604 1 0.16500 119244.000000
8685 14111 1 0.16500 119244.000000
8685 15009 1 0.16500 119244.000000
8686 14112 1 0.16500 119244.000000
8686 14716 1 0.16500 119244.000000
8687 14112 1 0.16500 119244.000000
8687 16267 1 0.16500 119244.000000
8688 14113 1 0.16500 119244.000000
8688 16486 1 0.16500 119244.000000
8689 14113 1 0.16500 119244.000000
8689 15651 1 0.16500 119244.000000
8690 14114 1 0.16500 119244.000000
8690 15920 1 0.16500 119244.000000
8691 14115 1 0.16500 119244.000000
8691 16107 1 0.16500 119244.000000
8692 14115 1 0.16500 119244.000000
8692 14623 1 0.16500 119244.000000
8693 14115 1 0.16500 119244.000000
8693 16310 1 0.16500 119244.000000
8694 14115 1 0.16500 119244.000000
8694 15494 1 0.16500 119244.000000
8695 14116 1 0.16500 119244.000000
8695 14441 1 0.16500 119244.000000
8696 14117 1 0.16500 119244.000000
8696 14829 1 0.16500 119244.000000
8697 14118 1 0.16500 119244.000000
8697 16391 1 0.16500 119244.000000
8698 14119 1 0.16500 119244.000000
8698 15929 1 0.16500 119244.000000
8699 14119 1 0.16500 119244.000000
8699 14339 1 0.16500 119244.000000
8700 14120 1 0.16500 119244.000000
8700 15815 1 0.16500 119244.000000
8701 14120 1 0.16500 119244.000000
8701 14436 1 0.16500 119244.000000
8702 14121 1 0.16500 119244.000000
8702 14733 1 0.16500 119244.000000
8703 14121 1 0.16500 119244.000000
8703 14638 1 0.16500 119244.000000
8704 14122 1 0.16500 119244.000000
8704 15461 1 0.16500 119244.000000
8705 14122 1 0.16500 119244.000000
8705 15426 1 0.16500 119244.000000
8706 14123 1 0.16500 119244.000000
8706 15772 1 0.16500 119244.000000
8707 14125 1 0.16500 119244.000000
8707 15603 1 0.16500 119244.000000
8708 14125 1 0.16500 119244.000000
8708 15639 1 0.16500 119244.000000
8709 14125 1 0.16500 119244.000000
8709 15796 1 0.16500 119244.000000
8710 14126 1 0.16500 119244.000000
8710 15540 1 0.16500 119244.000000
8711 14126 1 0.16500 119244.000000
8711 14146 1 0.16500 119244.000000
8712 14127 1 0.16500 119244.000000
8712 16078 1 0.16500 119244.000000
8713 14128 1 0.16500 119244.000000
8713 15697 1 0.16500 119244.000000
8714 14128 1 0.16500 119244.000000
8714 15165 1 0.16500 119244.000000
8715 14129 1 0.16500 119244.000000
8715 16466 1 0.16500 119244.000000
8716 14130 1 0.16500 119244.000000
8716 15789 1 0.16500 119244.000000
8717 14130 1 0.16500 119244.000000
8717 15059 1 0.16500 119244.000000
8718 14130 1 0.16500 119244.000000
8718 15541 1 0.16500 119244.000000
8719 14131 1 0.16500 119244.000000
8719 15121 1 0.16500 119244.000000
8720 14131 1 0.16500 119244.000000
8720 16228 1 0.16500 119244.000000
8721 14132 1 0.16500 119244.000000
8721 14362 1 0.16500 119244.000000
8722 14132 1 0.16500 119244.000000
8722 15181 1 0.16500 119244.000000
8723 14133 1 0.16500 119244.000000
8723 15720 1 0.16500 119244.000000
8724 14133 1 0.16500 119244.000000
8724 14969 1 0.16500 119244.000000
8725 14133 1 0.16500 119244.000000
8725 17454 1 0.16500 119244.000000
8726 14134 1 0.16500 119244.000000
8726 14562 1 0.16500 119244.000000
8727 14134 1 0.16500 119244.000000
8727 15074 1 0.16500 119244.000000
8728 14135 1 0.16500 119244.000000
8728 15606 1 0.16500 119244.000000
8729 11450 1 0.16500 119244.000000
8729 14135 1 0.16500 119244.000000
8730 14135 1 0.16500 119244.000000
8730 15502 1 0.16500 119244.000000
8731 14136 1 0.16500 119244.000000
8731 16142 1 0.16500 119244.000000
8732 14136 1 0.16500 119244.000000
8732 16040 1 0.16500 119244.000000
8733 14137 1 0.16500 119244.000000
8733 14813 1 0.16500 119244.000000
8734 14138 1 0.16500 119244.000000
8734 16245 1 0.16500 119244.000000
8735 13342 1 0.16500 119244.000000
8735 16382 1 0.16500 119244.000000
8736 14139 1 0.16500 119244.000000
8736 15693 1 0.16500 119244.000000
8737 14140 1 0.16500 119244.000000
8737 14337 1 0.16500 119244.000000
8738 14141 1 0.16500 119244.000000
8738 16327 1 0.16500 119244.000000
8739 14141 1 0.16500 119244.000000
8739 16394 1 0.16500 119244.000000
8740 14141 1 0.16500 119244.000000
8740 15879 1 0.16500 119244.000000
8741 14142 1 0.16500 119244.000000
8741 15090 1 0.16500 119244.000000
8742 14143 1 0.16500 119244.000000
8742 15550 1 0.16500 119244.000000
8743 14143 1 0.16500 119244.000000
8743 15339 1 0.16500 119244.000000
8744 14144 1 0.16500 119244.000000
8744 14581 1 0.16500 119244.000000
8745 14144 1 0.16500 119244.000000
8745 16042 1 0.16500 119244.000000
8746 14145 1 0.16500 119244.000000
8746 15616 1 0.16500 119244.000000
8747 14147 1 0.16500 119244.000000
8747 14162 1 0.16500 119244.000000
8748 14147 1 0.16500 119244.000000
8748 15024 1 0.16500 119244.000000
8749 14147 1 0.16500 119244.000000
8749 15396 1 0.16500 119244.000000
8750 14148 1 0.16500 119244.000000
8750 15631 1 0.16500 119244.000000
8751 14149 1 0.16500 119244.000000
8751 15024 1 0.16500 119244.000000
8752 14150 1 0.16500 119244.000000
8752 14153 1 0.16500 119244.000000
8753 14150 1 0.16500 119244.000000
8753 14347 1 0.16500 119244.000000
8754 14151 1 0.16500 119244.000000
8754 15221 1 0.16500 119244.000000
8755 14151 1 0.16500 119244.000000
8755 14235 1 0.16500 119244.000000
8756 14151 1 0.16500 119244.000000
8756 16025 1 0.16500 119244.000000
8757 14153 1 0.16500 119244.000000
8757 15799 1 0.16500 119244.000000
8758 14154 1 0.16500 119244.000000
8758 15278 1 0.16500 119244.000000
8759 14154 1 0.16500 119244.000000
8759 14972 1 0.16500 119244.000000
8760 21684 1 0.16500 119244.000000
8760 22281 1 0.16500 119244.000000
8761 15724 1 0.16500 119244.000000
8761 21684 1 0.16500 119244.000000
8762 14156 1 0.16500 119244.000000
8762 15535 1 0.16500 119244.000000
8763 14157 1 0.16500 119244.000000
8763 15080 1 0.16500 119244.000000
8764 14158 1 0.16500 119244.000000
8764 14163 1 0.16500 119244.000000
8765 14158 1 0.16500 119244.000000
8765 14371 1 0.16500 119244.000000
8766 14159 1 0.16500 119244.000000
8766 14573 1 0.16500 119244.000000
8767 14159 1 0.16500 119244.000000
8767 15835 1 0.16500 119244.000000
8768 14160 1 0.16500 119244.000000
8768 14645 1 0.16500 119244.000000
8769 14160 1 0.16500 119244.000000
8769 15754 1 0.16500 119244.000000
8770 14161 1 0.16500 119244.000000
8770 15252 1 0.16500 119244.000000
8771 14161 1 0.16500 119244.000000
8771 15452 1 0.16500 119244.000000
8772 14163 1 0.16500 119244.000000
8772 16244 1 0.16500 119244.000000
8773 14164 1 0.16500 119244.000000
8773 16054 1 0.16500 119244.000000
8774 14164 1 0.16500 119244.000000
8774 14548 1 0.16500 119244.000000
8775 14165 1 0.16500 119244.000000
8775 15359 1 0.16500 119244.000000
8776 14165 1 0.16500 119244.000000
8776 15086 1 0.16500 119244.000000
8777 14385 1 0.16500 119244.000000
8777 21687 1 0.16500 119244.000000
8778 14166 1 0.16500 119244.000000
8778 15216 1 0.16500 119244.000000
8779 14166 1 0.16500 119244.000000
8779 14437 1 0.16500 119244.000000
8780 14167 1 0.16500 119244.000000
8780 15760 1 0.16500 119244.000000
8781 14167 1 0.16500 119244.000000
8781 15502 1 0.16500 119244.000000
8782 14167 1 0.16500 119244.000000
8782 14914 1 0.16500 119244.000000
8783 14168 1 0.16500 119244.000000
8783 16436 1 0.16500 119244.000000
8784 14168 1 0.16500 119244.000000
8784 14575 1 0.16500 119244.000000
8785 14169 1 0.16500 119244.000000
8785 17846 1 0.16500 119244.000000
8786 14170 1 0.16500 119244.000000
8786 15104 1 0.16500 119244.000000
8787 14170 1 0.16500 119244.000000
8787 15612 1 0.16500 119244.000000
8788 14171 1 0.16500 119244.000000
8788 14884 1 0.16500 119244.000000
8789 14171 1 0.16500 119244.000000
8789 15510 1 0.16500 119244.000000
8790 14172 1 0.16500 119244.000000
8790 14778 1 0.16500 119244.000000
8791 14172 1 0.16500 119244.000000
8791 15238 1 0.16500 119244.000000
8792 14172 1 0.16500 119244.000000
8792 14619 1 0.16500 119244.000000
8793 14173 1 0.16500 119244.000000
8793 14811 1 0.16500 119244.000000
8794 14173 1 0.16500 119244.000000
8794 15587 1 0.16500 119244.000000
8795 14174 1 0.16500 119244.000000
8795 14770 1 0.16500 119244.000000
8796 14175 1 0.16500 119244.000000
8796 14421 1 0.16500 119244.000000
8797 14175 1 0.16500 119244.000000
8797 14490 1 0.16500 119244.000000
8798 14176 1 0.16500 119244.000000
8798 14843 1 0.16500 119244.000000
8799 14176 1 0.16500 119244.000000
8799 22179 1 0.16500 119244.000000
8800 14177 1 0.16500 119244.000000
8800 15572 1 0.16500 119244.000000
8801 13681 1 0.16500 119244.000000
8801 14177 1 0.16500 119244.000000
8802 14177 1 0.16500 119244.000000
8802 14910 1 0.16500 119244.000000
8803 14178 1 0.16500 119244.000000
8803 16005 1 0.16500 119244.000000
8804 14178 1 0.16500 119244.000000
8804 14181 1 0.16500 119244.000000
8805 14179 1 0.16500 119244.000000
8805 14740 1 0.16500 119244.000000
8806 14179 1 0.16500 119244.000000
8806 14298 1 0.16500 119244.000000
8807 14179 1 0.16500 119244.000000
8807 15900 1 0.16500 119244.000000
8808 14180 1 0.16500 119244.000000
8808 15191 1 0.16500 119244.000000
8809 14181 1 0.16500 119244.000000
8809 16145 1 0.16500 119244.000000
8810 14181 1 0.16500 119244.000000
8810 14535 1 0.16500 119244.000000
8811 14181 1 0.16500 119244.000000
8811 15563 1 0.16500 119244.000000
8812 14182 1 0.16500 119244.000000
8812 16136 1 0.16500 119244.000000
8813 14921 1 0.16500 119244.000000
8813 21690 1 0.16500 119244.000000
8814 14183 1 0.16500 119244.000000
8814 14929 1 0.16500 119244.000000
8815 12701 1 0.16500 119244.000000
8815 22197 1 0.16500 119244.000000
8816 14184 1 0.16500 119244.000000
8816 14786 1 0.16500 119244.000000
8817 14185 1 0.16500 119244.000000
8817 16149 1 0.16500 119244.000000
8818 14186 1 0.16500 119244.000000
8818 15890 1 0.16500 119244.000000
8819 14186 1 0.16500 119244.000000
8819 16304 1 0.16500 119244.000000
8820 14187 1 0.16500 119244.000000
8820 16180 1 0.16500 119244.000000
8821 15876 1 0.16500 119244.000000
8821 16880 1 0.16500 119244.000000
8822 16894 1 0.16500 119244.000000
8822 22134 1 0.16500 119244.000000
8823 14188 1 0.16500 119244.000000
8823 14589 1 0.16500 119244.000000
8824 14188 1 0.16500 119244.000000
8824 15961 1 0.16500 119244.000000
8825 14189 1 0.16500 119244.000000
8825 15192 1 0.16500 119244.000000
8826 15702 1 0.16500 119244.000000
8826 16254 1 0.16500 119244.000000
8827 14193 1 0.16500 119244.000000
8827 14282 1 0.16500 119244.000000
8828 14193 1 0.16500 119244.000000
8828 14820 1 0.16500 119244.000000
8829 14193 1 0.16500 119244.000000
8829 21657 1 0.16500 119244.000000
8830 14194 1 0.16500 119244.000000
8830 15729 1 0.16500 119244.000000
8831 14195 1 0.16500 119244.000000
8831 15865 1 0.16500 119244.000000
8832 14195 1 0.16500 119244.000000
8832 15584 1 0.16500 119244.000000
8833 14195 1 0.16500 119244.000000
8833 14966 1 0.16500 119244.000000
8834 14195 1 0.16500 119244.000000
8834 14673 1 0.16500 119244.000000
8835 14196 1 0.16500 119244.000000
8835 14427 1 0.16500 119244.000000
8836 14197 1 0.16500 119244.000000
8836 15446 1 0.16500 119244.000000
8837 14198 1 0.16500 119244.000000
8837 14867 1 0.16500 119244.000000
8838 14199 1 0.16500 119244.000000
8838 14983 1 0.16500 119244.000000
8839 14199 1 0.16500 119244.000000
8839 15305 1 0.16500 119244.000000
8840 14199 1 0.16500 119244.000000
8840 15837 1 0.16500 119244.000000
8841 14200 1 0.16500 119244.000000
8841 22454 1 0.16500 119244.000000
8842 14200 1 0.16500 119244.000000
8842 14548 1 0.16500 119244.000000
8843 14201 1 0.16500 119244.000000
8843 16029 1 0.16500 119244.000000
8844 14201 1 0.16500 119244.000000
8844 15189 1 0.16500 119244.000000
8845 14202 1 0.16500 119244.000000
8845 16214 1 0.16500 119244.000000
8846 14202 1 0.16500 119244.000000
8846 16196 1 0.16500 119244.000000
8847 14203 1 0.16500 119244.000000
8847 15310 1 0.16500 119244.000000
8848 13093 1 0.16500 119244.000000
8848 14780 1 0.16500 119244.000000
8849 14204 1 0.16500 119244.000000
8849 15276 1 0.16500 119244.000000
8850 14205 1 0.16500 119244.000000
8850 16445 1 0.16500 119244.000000
8851 16936 1 0.16500 119244.000000
8851 22110 1 0.16500 119244.000000
8852 14206 1 0.16500 119244.000000
8852 14876 1 0.16500 119244.000000
8853 14206 1 0.16500 119244.000000
8853 15104 1 0.16500 119244.000000
8854 14206 1 0.16500 119244.000000
8854 16202 1 0.16500 119244.000000
8855 12925 1 0.16500 119244.000000
8855 16408 1 0.16500 119244.000000
8856 14207 1 0.16500 119244.000000
8856 14630 1 0.16500 119244.000000
8857 14207 1 0.16500 119244.000000
8857 14444 1 0.16500 119244.000000
8858 14208 1 0.16500 119244.000000
8858 15765 1 0.16500 119244.000000
8859 14208 1 0.16500 119244.000000
8859 15382 1 0.16500 119244.000000
8860 14208 1 0.16500 119244.000000
8860 16207 1 0.16500 119244.000000
8861 14209 1 0.16500 119244.000000
8861 16101 1 0.16500 119244.000000
8862 14209 1 0.16500 119244.000000
8862 14614 1 0.16500 119244.000000
8863 14209 1 0.16500 119244.000000
8863 15090 1 0.16500 119244.000000
8864 16170 1 0.16500 119244.000000
8864 21696 1 0.16500 119244.000000
8865 21696 1 0.16500 119244.000000
8865 22374 1 0.16500 119244.000000
8866 14849 1 0.16500 119244.000000
8866 16964 1 0.16500 119244.000000
8867 16263 1 0.16500 119244.000000
8867 16964 1 0.16500 119244.000000
8868 14210 1 0.16500 119244.000000
8868 14443 1 0.16500 119244.000000
8869 11569 1 0.16500 119244.000000
8869 15768 1 0.16500 119244.000000
8870 14211 1 0.16500 119244.000000
8870 16160 1 0.16500 119244.000000
8871 14211 1 0.16500 119244.000000
8871 14355 1 0.16500 119244.000000
8872 14213 1 0.16500 119244.000000
8872 15086 1 0.16500 119244.000000
8873 14214 1 0.16500 119244.000000
8873 14888 1 0.16500 119244.000000
8874 14214 1 0.16500 119244.000000
8874 22059 1 0.16500 119244.000000
8875 14214 1 0.16500 119244.000000
8875 21861 1 0.16500 119244.000000
8876 14850 1 0.16500 119244.000000
8876 21699 1 0.16500 119244.000000
8877 15066 1 0.16500 119244.000000
8877 21702 1 0.16500 119244.000000
8878 14215 1 0.16500 119244.000000
8878 14596 1 0.16500 119244.000000
8879 14215 1 0.16500 119244.000000
8879 18154 1 0.16500 119244.000000
8880 14216 1 0.16500 119244.000000
8880 15125 1 0.16500 119244.000000
8881 14217 1 0.16500 119244.000000
8881 15057 1 0.16500 119244.000000
8882 14217 1 0.16500 119244.000000
8882 16108 1 0.16500 119244.000000
8883 14218 1 0.16500 119244.000000
8883 15316 1 0.16500 119244.000000
8884 14219 1 0.16500 119244.000000
8884 15682 1 0.16500 119244.000000
8885 14219 1 0.16500 119244.000000
8885 15548 1 0.16500 119244.000000
8886 14220 1 0.16500 119244.000000
8886 14521 1 0.16500 119244.000000
8887 14220 1 0.16500 119244.000000
8887 15741 1 0.16500 119244.000000
8888 14222 1 0.16500 119244.000000
8888 15974 1 0.16500 119244.000000
8889 14222 1 0.16500 119244.000000
8889 15955 1 0.16500 119244.000000
8890 14222 1 0.16500 119244.000000
8890 14435 1 0.16500 119244.000000
8891 14223 1 0.16500 119244.000000
8891 14448 1 0.16500 119244.000000
8892 14223 1 0.16500 119244.000000
8892 15446 1 0.16500 119244.000000
8893 13381 1 0.16500 119244.000000
8893 14224 1 0.16500 119244.000000
8894 12148 1 0.16500 119244.000000
8894 15935 1 0.16500 119244.000000
8895 14225 1 0.16500 119244.000000
8895 16261 1 0.16500 119244.000000
8896 14226 1 0.16500 119244.000000
8896 14818 1 0.16500 119244.000000
8897 14226 1 0.16500 119244.000000
8897 14829 1 0.16500 119244.000000
8898 14226 1 0.16500 119244.000000
8898 15053 1 0.16500 119244.000000
8899 14227 1 0.16500 119244.000000
8899 14592 1 0.16500 119244.000000
8900 14228 1 0.16500 119244.000000
8900 16260 1 0.16500 119244.000000
8901 14228 1 0.16500 119244.000000
8901 15723 1 0.16500 119244.000000
8902 14229 1 0.16500 119244.000000
8902 15970 1 0.16500 119244.000000
8903 14229 1 0.16500 119244.000000
8903 16074 1 0.16500 119244.000000
8904 14230 1 0.16500 119244.000000
8904 16326 1 0.16500 119244.000000
8905 14230 1 0.16500 119244.000000
8905 16470 1 0.16500 119244.000000
8906 14230 1 0.16500 119244.000000
8906 15061 1 0.16500 119244.000000
8907 14231 1 0.16500 119244.000000
8907 15933 1 0.16500 119244.000000
8908 14986 1 0.16500 119244.000000
8908 21705 1 0.16500 119244.000000
8909 14233 1 0.16500 119244.000000
8909 14895 1 0.16500 119244.000000
8910 14233 1 0.16500 119244.000000
8910 14630 1 0.16500 119244.000000
8911 14234 1 0.16500 119244.000000
8911 15774 1 0.16500 119244.000000
8912 14234 1 0.16500 119244.000000
8912 14729 1 0.16500 119244.000000
8913 14307 1 0.16500 119244.000000
8913 21708 1 0.16500 119244.000000
8914 14235 1 0.16500 119244.000000
8914 14625 1 0.16500 119244.000000
8915 14235 1 0.16500 119244.000000
8915 14668 1 0.16500 119244.000000
8916 13214 1 0.16500 119244.000000
8916 16992 1 0.16500 119244.000000
8917 14236 1 0.16500 119244.000000
8917 15456 1 0.16500 119244.000000
8918 14237 1 0.16500 119244.000000
8918 14877 1 0.16500 119244.000000
8919 14237 1 0.16500 119244.000000
8919 14728 1 0.16500 119244.000000
8920 14237 1 0.16500 119244.000000
8920 15228 1 0.16500 119244.000000
8921 14238 1 0.16500 119244.000000
8921 16037 1 0.16500 119244.000000
8922 14238 1 0.16500 119244.000000
8922 16075 1 0.16500 119244.000000
8923 21711 1 0.16500 119244.000000
8923 22353 1 0.16500 119244.000000
8924 14240 1 0.16500 119244.000000
8924 15136 1 0.16500 119244.000000
8925 14240 1 0.16500 119244.000000
8925 16431 1 0.16500 119244.000000
8926 14240 1 0.16500 119244.000000
8926 15047 1 0.16500 119244.000000
8927 14241 1 0.16500 119244.000000
8927 16319 1 0.16500 119244.000000
8928 17006 1 0.16500 119244.000000
8928 21909 1 0.16500 119244.000000
8929 14242 1 0.16500 119244.000000
8929 16253 1 0.16500 119244.000000
8930 14243 1 0.16500 119244.000000
8930 16451 1 0.16500 119244.000000
8931 14243 1 0.16500 119244.000000
8931 16294 1 0.16500 119244.000000
8932 14243 1 0.16500 119244.000000
8932 15713 1 0.16500 119244.000000
8933 14243 1 0.16500 119244.000000
8933 15964 1 0.16500 119244.000000
8934 14244 1 0.16500 119244.000000
8934 16127 1 0.16500 119244.000000
8935 14244 1 0.16500 119244.000000
8935 15414 1 0.16500 119244.000000
8936 14245 1 0.16500 119244.000000
8936 14947 1 0.16500 119244.000000
8937 14246 1 0.16500 119244.000000
8937 14943 1 0.16500 119244.000000
8938 14246 1 0.16500 119244.000000
8938 17972 1 0.16500 119244.000000
8939 13826 1 0.16500 119244.000000
8939 14247 1 0.16500 119244.000000
8940 14248 1 0.16500 119244.000000
8940 16244 1 0.16500 119244.000000
8941 14249 1 0.16500 119244.000000
8941 14290 1 0.16500 119244.000000
8942 17678 1 0.16500 119244.000000
8942 21714 1 0.16500 119244.000000
8943 14250 1 0.16500 119244.000000
8943 15995 1 0.16500 119244.000000
8944 14250 1 0.16500 119244.000000
8944 14798 1 0.16500 119244.000000
8945 14250 1 0.16500 119244.000000
8945 16199 1 0.16500 119244.000000
8946 14250 1 0.16500 119244.000000
8946 16426 1 0.16500 119244.000000
8947 14251 1 0.16500 119244.000000
8947 16087 1 0.16500 119244.000000
8948 14251 1 0.16500 119244.000000
8948 14472 1 0.16500 119244.000000
8949 14252 1 0.16500 119244.000000
8949 16414 1 0.16500 119244.000000
8950 14252 1 0.16500 119244.000000
8950 15209 1 0.16500 119244.000000
8951 14252 1 0.16500 119244.000000
8951 15386 1 0.16500 119244.000000
8952 14252 1 0.16500 119244.000000
8952 16472 1 0.16500 119244.000000
8953 14253 1 0.16500 119244.000000
8953 15391 1 0.16500 119244.000000
8954 14254 1 0.16500 119244.000000
8954 22284 1 0.16500 119244.000000
8955 14254 1 0.16500 119244.000000
8955 15000 1 0.16500 119244.000000
8956 14254 1 0.16500 119244.000000
8956 14737 1 0.16500 119244.000000
8957 14255 1 0.16500 119244.000000
8957 14546 1 0.16500 119244.000000
8958 14255 1 0.16500 119244.000000
8958 16517 1 0.16500 119244.000000
8959 14255 1 0.16500 119244.000000
8959 15375 1 0.16500 119244.000000
8960 14257 1 0.16500 119244.000000
8960 14260 1 0.16500 119244.000000
8961 21717 1 0.16500 119244.000000
8961 22176 1 0.16500 119244.000000
8962 15254 1 0.16500 119244.000000
8962 17020 1 0.16500 119244.000000
8963 14258 1 0.16500 119244.000000
8963 16508 1 0.16500 119244.000000
8964 14259 1 0.16500 119244.000000
8964 15380 1 0.16500 119244.000000
8965 14259 1 0.16500 119244.000000
8965 16436 1 0.16500 119244.000000
8966 14259 1 0.16500 119244.000000
8966 16227 1 0.16500 119244.000000
8967 14260 1 0.16500 119244.000000
8967 15771 1 0.16500 119244.000000
8968 14261 1 0.16500 119244.000000
8968 15591 1 0.16500 119244.000000
8969 14261 1 0.16500 119244.000000
8969 15554 1 0.16500 119244.000000
8970 12164 1 0.16500 119244.000000
8970 16101 1 0.16500 119244.000000
8971 14263 1 0.16500 119244.000000
8971 16503 1 0.16500 119244.000000
8972 14263 1 0.16500 119244.000000
8972 15322 1 0.16500 119244.000000
8973 14263 1 0.16500 119244.000000
8973 14611 1 0.16500 119244.000000
8974 14696 1 0.16500 119244.000000
8974 17034 1 0.16500 119244.000000
8975 16146 1 0.16500 119244.000000
8975 21720 1 0.16500 119244.000000
8976 12087 1 0.16500 119244.000000
8976 14464 1 0.16500 119244.000000
8977 14264 1 0.16500 119244.000000
8977 15872 1 0.16500 119244.000000
8978 14264 1 0.16500 119244.000000
8978 14930 1 0.16500 119244.000000
8979 14265 1 0.16500 119244.000000
8979 16295 1 0.16500 119244.000000
8980 14265 1 0.16500 119244.000000
8980 14855 1 0.16500 119244.000000
8981 14265 1 0.16500 119244.000000
8981 15258 1 0.16500 119244.000000
8982 14266 1 0.16500 119244.000000
8982 15611 1 0.16500 119244.000000
8983 14266 1 0.16500 119244.000000
8983 14979 1 0.16500 119244.000000
8984 14267 1 0.16500 119244.000000
8984 16256 1 0.16500 119244.000000
8985 14267 1 0.16500 119244.000000
8985 21945 1 0.16500 119244.000000
8986 11696 1 0.16500 119244.000000
8986 15164 1 0.16500 119244.000000
8987 14269 1 0.16500 119244.000000
8987 16506 1 0.16500 119244.000000
8988 14269 1 0.16500 119244.000000
8988 16008 1 0.16500 119244.000000
8989 14269 1 0.16500 119244.000000
8989 14456 1 0.16500 119244.000000
8990 14270 1 0.16500 119244.000000
8990 16046 1 0.16500 119244.000000
8991 14272 1 0.16500 119244.000000
8991 15516 1 0.16500 119244.000000
8992 14272 1 0.16500 119244.000000
8992 16051 1 0.16500 119244.000000
8993 14273 1 0.16500 119244.000000
8993 15883 1 0.16500 119244.000000
8994 14273 1 0.16500 119244.000000
8994 16351 1 0.16500 119244.000000
8995 14274 1 0.16500 119244.000000
8995 15153 1 0.16500 119244.000000
8996 14276 1 0.16500 119244.000000
8996 16389 1 0.16500 119244.000000
8997 14276 1 0.16500 119244.000000
8997 14636 1 0.16500 119244.000000
8998 13936 1 0.16500 119244.000000
8998 15676 1 0.16500 119244.000000
8999 14278 1 0.16500 119244.000000
8999 15030 1 0.16500 119244.000000
9000 14278 1 0.16500 119244.000000
9000 14608 1 0.16500 119244.000000
9001 16409 1 0.16500 119244.000000
9001 18774 1 0.16500 119244.000000
9002 14279 1 0.16500 119244.000000
9002 16211 1 0.16500 119244.000000
9003 14279 1 0.16500 119244.000000
9003 15559 1 0.16500 119244.000000
9004 14279 1 0.16500 119244.000000
9004 15704 1 0.16500 119244.000000
9005 14280 1 0.16500 119244.000000
9005 15489 1 0.16500 119244.000000
9006 14281 1 0.16500 119244.000000
9006 14609 1 0.16500 119244.000000
9007 14281 1 0.16500 119244.000000
9007 16471 1 0.16500 119244.000000
9008 14281 1 0.16500 119244.000000
9008 16293 1 0.16500 119244.000000
9009 14282 1 0.16500 119244.000000
9009 16184 1 0.16500 119244.000000
9010 11862 1 0.16500 119244.000000
9010 21723 1 0.16500 119244.000000
9011 21726 1 0.16500 119244.000000
9011 21963 1 0.16500 119244.000000
9012 14414 1 0.16500 119244.000000
9012 21726 1 0.16500 119244.000000
9013 14283 1 0.16500 119244.000000
9013 15843 1 0.16500 119244.000000
9014 14283 1 0.16500 119244.000000
9014 15365 1 0.16500 119244.000000
9015 14284 1 0.16500 119244.000000
9015 14585 1 0.16500 119244.000000
9016 14585 1 0.16500 119244.000000
9016 15162 1 0.16500 119244.000000
9017 14284 1 0.16500 119244.000000
9017 16315 1 0.16500 119244.000000
9018 14285 1 0.16500 119244.000000
9018 15665 1 0.16500 119244.000000
9019 14286 1 0.16500 119244.000000
9019 14344 1 0.16500 119244.000000
9020 12033 1 0.16500 119244.000000
9020 14287 1 0.16500 119244.000000
9021 14287 1 0.16500 119244.000000
9021 15991 1 0.16500 119244.000000
9022 14288 1 0.16500 119244.000000
9022 15211 1 0.16500 119244.000000
9023 14288 1 0.16500 119244.000000
9023 15893 1 0.16500 119244.000000
9024 15058 1 0.16500 119244.000000
9024 21729 1 0.16500 119244.000000
9025 21729 1 0.16500 119244.000000
9025 22230 1 0.16500 119244.000000
9026 14289 1 0.16500 119244.000000
9026 15889 1 0.16500 119244.000000
9027 14289 1 0.16500 119244.000000
9027 15595 1 0.16500 119244.000000
9028 14289 1 0.16500 119244.000000
9028 15431 1 0.16500 119244.000000
9029 14290 1 0.16500 119244.000000
9029 14903 1 0.16500 119244.000000
9030 14290 1 0.16500 119244.000000
9030 14668 1 0.16500 119244.000000
9031 14291 1 0.16500 119244.000000
9031 15342 1 0.16500 119244.000000
9032 14291 1 0.16500 119244.000000
9032 17412 1 0.16500 119244.000000
9033 13502 1 0.16500 119244.000000
9033 14291 1 0.16500 119244.000000
9034 14292 1 0.16500 119244.000000
9034 14615 1 0.16500 119244.000000
9035 15084 1 0.16500 119244.000000
9035 17048 1 0.16500 119244.000000
9036 14294 1 0.16500 119244.000000
9036 16027 1 0.16500 119244.000000
9037 14294 1 0.16500 119244.000000
9037 14684 1 0.16500 119244.000000
9038 14295 1 0.16500 119244.000000
9038 15537 1 0.16500 119244.000000
9039 14295 1 0.16500 119244.000000
9039 14991 1 0.16500 119244.000000
9040 14296 1 0.16500 119244.000000
9040 15307 1 0.16500 119244.000000
9041 15140 1 0.16500 119244.000000
9041 15785 1 0.16500 119244.000000
9042 14296 1 0.16500 119244.000000
9042 15785 1 0.16500 119244.000000
9043 14296 1 0.16500 119244.000000
9043 15446 1 0.16500 119244.000000
9044 14297 1 0.16500 119244.000000
9044 14724 1 0.16500 119244.000000
9045 14298 1 0.16500 119244.000000
9045 15649 1 0.16500 119244.000000
9046 14299 1 0.16500 119244.000000
9046 15018 1 0.16500 119244.000000
9047 14299 1 0.16500 119244.000000
9047 15780 1 0.16500 119244.000000
9048 18098 1 0.16500 119244.000000
9048 21732 1 0.16500 119244.000000
9049 14300 1 0.16500 119244.000000
9049 15185 1 0.16500 119244.000000
9050 14300 1 0.16500 119244.000000
9050 16102 1 0.16500 119244.000000
9051 14301 1 0.16500 119244.000000
9051 14837 1 0.16500 119244.000000
9052 14301 1 0.16500 119244.000000
9052 16439 1 0.16500 119244.000000
9053 14302 1 0.16500 119244.000000
9053 15207 1 0.16500 119244.000000
9054 14303 1 0.16500 119244.000000
9054 21774 1 0.16500 119244.000000
9055 14303 1 0.16500 119244.000000
9055 16034 1 0.16500 119244.000000
9056 12596 1 0.16500 119244.000000
9056 14305 1 0.16500 119244.000000
9057 14306 1 0.16500 119244.000000
9057 14549 1 0.16500 119244.000000
9058 14306 1 0.16500 119244.000000
9058 16216 1 0.16500 119244.000000
9059 14306 1 0.16500 119244.000000
9059 14686 1 0.16500 119244.000000
9060 14307 1 0.16500 119244.000000
9060 14328 1 0.16500 119244.000000
9061 13419 1 0.16500 119244.000000
9061 14989 1 0.16500 119244.000000
9062 12440 1 0.16500 119244.000000
9062 14308 1 0.16500 119244.000000
9063 14308 1 0.16500 119244.000000
9063 14412 1 0.16500 119244.000000
9064 14308 1 0.16500 119244.000000
9064 16132 1 0.16500 119244.000000
9065 14309 1 0.16500 119244.000000
9065 14748 1 0.16500 119244.000000
9066 14310 1 0.16500 119244.000000
9066 15855 1 0.16500 119244.000000
9067 14956 1 0.16500 119244.000000
9067 17062 1 0.16500 119244.000000
9068 14311 1 0.16500 119244.000000
9068 15237 1 0.16500 119244.000000
9069 14795 1 0.16500 119244.000000
9069 15237 1 0.16500 119244.000000
9070 14312 1 0.16500 119244.000000
9070 16425 1 0.16500 119244.000000
9071 14312 1 0.16500 119244.000000
9071 14952 1 0.16500 119244.000000
9072 14313 1 0.16500 119244.000000
9072 15354 1 0.16500 119244.000000
9073 12657 1 0.16500 119244.000000
9073 15171 1 0.16500 119244.000000
9074 14314 1 0.16500 119244.000000
9074 15806 1 0.16500 119244.000000
9075 14314 1 0.16500 119244.000000
9075 14856 1 0.16500 119244.000000
9076 14315 1 0.16500 119244.000000
9076 15309 1 0.16500 119244.000000
9077 14315 1 0.16500 119244.000000
9077 15418 1 0.16500 119244.000000
9078 14315 1 0.16500 119244.000000
9078 16480 1 0.16500 119244.000000
9079 14315 1 0.16500 119244.000000
9079 16089 1 0.16500 119244.000000
9080 14316 1 0.16500 119244.000000
9080 16524 1 0.16500 119244.000000
9081 14316 1 0.16500 119244.000000
9081 14323 1 0.16500 119244.000000
9082 14826 1 0.16500 119244.000000
9082 15746 1 0.16500 119244.000000
9083 14316 1 0.16500 119244.000000
9083 15746 1 0.16500 119244.000000
9084 14317 1 0.16500 119244.000000
9084 14358 1 0.16500 119244.000000
9085 13149 1 0.16500 119244.000000
9085 14443 1 0.16500 119244.000000
9086 14319 1 0.16500 119244.000000
9086 15101 1 0.16500 119244.000000
9087 14320 1 0.16500 119244.000000
9087 15571 1 0.16500 119244.000000
9088 16377 1 0.16500 119244.000000
9088 21735 1 0.16500 119244.000000
9089 15253 1 0.16500 119244.000000
9089 21735 1 0.16500 119244.000000
9090 17188 1 0.16500 119244.000000
9090 21735 1 0.16500 119244.000000
9091 14321 1 0.16500 119244.000000
9091 21861 1 0.16500 119244.000000
9092 14321 1 0.16500 119244.000000
9092 21921 1 0.16500 119244.000000
9093 14321 1 0.16500 119244.000000
9093 14322 1 0.16500 119244.000000
9094 14322 1 0.16500 119244.000000
9094 14520 1 0.16500 119244.000000
9095 14322 1 0.16500 119244.000000
9095 16525 1 0.16500 119244.000000
9096 14323 1 0.16500 119244.000000
9096 16202 1 0.16500 119244.000000
9097 14323 1 0.16500 119244.000000
9097 14954 1 0.16500 119244.000000
9098 11971 1 0.16500 119244.000000
9098 17076 1 0.16500 119244.000000
9099 14324 1 0.16500 119244.000000
9099 16103 1 0.16500 119244.000000
9100 14324 1 0.16500 119244.000000
9100 16273 1 0.16500 119244.000000
9101 14325 1 0.16500 119244.000000
9101 16022 1 0.16500 119244.000000
9102 14325 1 0.16500 119244.000000
9102 14528 1 0.16500 119244.000000
9103 15788 1 0.16500 119244.000000
9103 21738 1 0.16500 119244.000000
9104 15766 1 0.16500 119244.000000
9104 21738 1 0.16500 119244.000000
9105 14326 1 0.16500 119244.000000
9105 15122 1 0.16500 119244.000000
9106 14326 1 0.16500 119244.000000
9106 16138 1 0.16500 119244.000000
9107 14326 1 0.16500 119244.000000
9107 14335 1 0.16500 119244.000000
9108 14327 1 0.16500 119244.000000
9108 16012 1 0.16500 119244.000000
9109 14328 1 0.16500 119244.000000
9109 15877 1 0.16500 119244.000000
9110 14329 1 0.16500 119244.000000
9110 14356 1 0.16500 119244.000000
9111 16007 1 0.16500 119244.000000
9111 21567 1 0.16500 119244.000000
9112 14329 1 0.16500 119244.000000
9112 15576 1 0.16500 119244.000000
9113 14330 1 0.16500 119244.000000
9113 15849 1 0.16500 119244.000000
9114 14331 1 0.16500 119244.000000
9114 15030 1 0.16500 119244.000000
9115 14331 1 0.16500 119244.000000
9115 14899 1 0.16500 119244.000000
9116 14331 1 0.16500 119244.000000
9116 15335 1 0.16500 119244.000000
9117 14332 1 0.16500 119244.000000
9117 16137 1 0.16500 119244.000000
9118 14332 1 0.16500 119244.000000
9118 15275 1 0.16500 119244.000000
9119 14809 1 0.16500 119244.000000
9119 15275 1 0.16500 119244.000000
9120 14332 1 0.16500 119244.000000
9120 15982 1 0.16500 119244.000000
9121 14333 1 0.16500 119244.000000
9121 15865 1 0.16500 119244.000000
9122 14333 1 0.16500 119244.000000
9122 15800 1 0.16500 119244.000000
9123 14334 1 0.16500 119244.000000
9123 16358 1 0.16500 119244.000000
9124 14334 1 0.16500 119244.000000
9124 15326 1 0.16500 119244.000000
9125 14334 1 0.16500 119244.000000
9125 16129 1 0.16500 119244.000000
9126 15758 1 0.16500 119244.000000
9126 16129 1 0.16500 119244.000000
9127 14335 1 0.16500 119244.000000
9127 16425 1 0.16500 119244.000000
9128 12802 1 0.16500 119244.000000
9128 14335 1 0.16500 119244.000000
9129 14337 1 0.16500 119244.000000
9129 14756 1 0.16500 119244.000000
9130 13428 1 0.16500 119244.000000
9130 14338 1 0.16500 119244.000000
9131 14338 1 0.16500 119244.000000
9131 14659 1 0.16500 119244.000000
9132 14338 1 0.16500 119244.000000
9132 15200 1 0.16500 119244.000000
9133 14338 1 0.16500 119244.000000
9133 16473 1 0.16500 119244.000000
9134 12239 1 0.16500 119244.000000
9134 16009 1 0.16500 119244.000000
9135 14341 1 0.16500 119244.000000
9135 16224 1 0.16500 119244.000000
9136 14341 1 0.16500 119244.000000
9136 15331 1 0.16500 119244.000000
9137 14342 1 0.16500 119244.000000
9137 14630 1 0.16500 119244.000000
9138 14342 1 0.16500 119244.000000
9138 14449 1 0.16500 119244.000000
9139 16134 1 0.16500 119244.000000
9139 21741 1 0.16500 119244.000000
9140 14639 1 0.16500 119244.000000
9140 21741 1 0.16500 119244.000000
9141 14343 1 0.16500 119244.000000
9141 16114 1 0.16500 119244.000000
9142 14344 1 0.16500 119244.000000
9142 14823 1 0.16500 119244.000000
9143 21744 1 0.16500 119244.000000
9143 21930 1 0.16500 119244.000000
9144 14590 1 0.16500 119244.000000
9144 21744 1 0.16500 119244.000000
9145 14345 1 0.16500 119244.000000
9145 15129 1 0.16500 119244.000000
9146 15608 1 0.16500 119244.000000
9146 16273 1 0.16500 119244.000000
9147 14840 1 0.16500 119244.000000
9147 15608 1 0.16500 119244.000000
9148 14347 1 0.16500 119244.000000
9148 15608 1 0.16500 119244.000000
9149 14348 1 0.16500 119244.000000
9149 16374 1 0.16500 119244.000000
9150 14348 1 0.16500 119244.000000
9150 15678 1 0.16500 119244.000000
9151 14348 1 0.16500 119244.000000
9151 14463 1 0.16500 119244.000000
9152 14349 1 0.16500 119244.000000
9152 14917 1 0.16500 119244.000000
9153 14349 1 0.16500 119244.000000
9153 15594 1 0.16500 119244.000000
9154 14349 1 0.16500 119244.000000
9154 15640 1 0.16500 119244.000000
9155 14350 1 0.16500 119244.000000
9155 16021 1 0.16500 119244.000000
9156 14351 1 0.16500 119244.000000
9156 15617 1 0.16500 119244.000000
9157 14351 1 0.16500 119244.000000
9157 15902 1 0.16500 119244.000000
9158 14352 1 0.16500 119244.000000
9158 15661 1 0.16500 119244.000000
9159 12863 1 0.16500 119244.000000
9159 14697 1 0.16500 119244.000000
9160 14353 1 0.16500 119244.000000
9160 15915 1 0.16500 119244.000000
9161 14353 1 0.16500 119244.000000
9161 15736 1 0.16500 119244.000000
9162 14353 1 0.16500 119244.000000
9162 15442 1 0.16500 119244.000000
9163 14354 1 0.16500 119244.000000
9163 14676 1 0.16500 119244.000000
9164 14354 1 0.16500 119244.000000
9164 22374 1 0.16500 119244.000000
9165 14354 1 0.16500 119244.000000
9165 16521 1 0.16500 119244.000000
9166 14355 1 0.16500 119244.000000
9166 16418 1 0.16500 119244.000000
9167 14355 1 0.16500 119244.000000
9167 15234 1 0.16500 119244.000000
9168 15675 1 0.16500 119244.000000
9168 21750 1 0.16500 119244.000000
9169 14357 1 0.16500 119244.000000
9169 15319 1 0.16500 119244.000000
9170 14359 1 0.16500 119244.000000
9170 15180 1 0.16500 119244.000000
9171 14359 1 0.16500 119244.000000
9171 16310 1 0.16500 119244.000000
9172 12548 1 0.16500 119244.000000
9172 18238 1 0.16500 119244.000000
9173 14360 1 0.16500 119244.000000
9173 15536 1 0.16500 119244.000000
9174 11928 1 0.16500 119244.000000
9174 16405 1 0.16500 119244.000000
9175 15170 1 0.16500 119244.000000
9175 15536 1 0.16500 119244.000000
9176 14361 1 0.16500 119244.000000
9176 15016 1 0.16500 119244.000000
9177 14361 1 0.16500 119244.000000
9177 16010 1 0.16500 119244.000000
9178 14362 1 0.16500 119244.000000
9178 14785 1 0.16500 119244.000000
9179 14363 1 0.16500 119244.000000
9179 15300 1 0.16500 119244.000000
9180 15210 1 0.16500 119244.000000
9180 21618 1 0.16500 119244.000000
9181 14363 1 0.16500 119244.000000
9181 16211 1 0.16500 119244.000000
9182 14364 1 0.16500 119244.000000
9182 15942 1 0.16500 119244.000000
9183 14366 1 0.16500 119244.000000
9183 22047 1 0.16500 119244.000000
9184 14366 1 0.16500 119244.000000
9184 14592 1 0.16500 119244.000000
9185 14367 1 0.16500 119244.000000
9185 15976 1 0.16500 119244.000000
9186 14369 1 0.16500 119244.000000
9186 16338 1 0.16500 119244.000000
9187 14370 1 0.16500 119244.000000
9187 14535 1 0.16500 119244.000000
9188 14371 1 0.16500 119244.000000
9188 15181 1 0.16500 119244.000000
9189 18042 1 0.16500 119244.000000
9189 21756 1 0.16500 119244.000000
9190 15070 1 0.16500 119244.000000
9190 21756 1 0.16500 119244.000000
9191 21756 1 0.16500 119244.000000
9191 22221 1 0.16500 119244.000000
9192 14372 1 0.16500 119244.000000
9192 14811 1 0.16500 119244.000000
9193 17090 1 0.16500 119244.000000
9193 17874 1 0.16500 119244.000000
9194 12587 1 0.16500 119244.000000
9194 17104 1 0.16500 119244.000000
9195 14373 1 0.16500 119244.000000
9195 16443 1 0.16500 119244.000000
9196 14374 1 0.16500 119244.000000
9196 15935 1 0.16500 119244.000000
9197 14374 1 0.16500 119244.000000
9197 15548 1 0.16500 119244.000000
9198 14375 1 0.16500 119244.000000
9198 15401 1 0.16500 119244.000000
9199 14375 1 0.16500 119244.000000
9199 15922 1 0.16500 119244.000000
9200 14375 1 0.16500 119244.000000
9200 15923 1 0.16500 119244.000000
9201 14376 1 0.16500 119244.000000
9201 15107 1 0.16500 119244.000000
9202 14376 1 0.16500 119244.000000
9202 22260 1 0.16500 119244.000000
9203 14377 1 0.16500 119244.000000
9203 15904 1 0.16500 119244.000000
9204 14377 1 0.16500 119244.000000
9204 15233 1 0.16500 119244.000000
9205 14378 1 0.16500 119244.000000
9205 16350 1 0.16500 119244.000000
9206 14378 1 0.16500 119244.000000
9206 14659 1 0.16500 119244.000000
9207 14380 1 0.16500 119244.000000
9207 16354 1 0.16500 119244.000000
9208 14380 1 0.16500 119244.000000
9208 16025 1 0.16500 119244.000000
9209 14380 1 0.16500 119244.000000
9209 15222 1 0.16500 119244.000000
9210 14381 1 0.16500 119244.000000
9210 22074 1 0.16500 119244.000000
9211 14381 1 0.16500 119244.000000
9211 16452 1 0.16500 119244.000000
9212 14381 1 0.16500 119244.000000
9212 15441 1 0.16500 119244.000000
9213 14382 1 0.16500 119244.000000
9213 14426 1 0.16500 119244.000000
9214 14383 1 0.16500 119244.000000
9214 15042 1 0.16500 119244.000000
9215 14384 1 0.16500 119244.000000
9215 15615 1 0.16500 119244.000000
9216 14472 1 0.16500 119244.000000
9216 15786 1 0.16500 119244.000000
9217 14791 1 0.16500 119244.000000
9217 16153 1 0.16500 119244.000000
9218 14385 1 0.16500 119244.000000
9218 14791 1 0.16500 119244.000000
9219 14386 1 0.16500 119244.000000
9219 14397 1 0.16500 119244.000000
9220 14387 1 0.16500 119244.000000
9220 15085 1 0.16500 119244.000000
9221 14387 1 0.16500 119244.000000
9221 15955 1 0.16500 119244.000000
9222 14388 1 0.16500 119244.000000
9222 15225 1 0.16500 119244.000000
9223 14389 1 0.16500 119244.000000
9223 14655 1 0.16500 119244.000000
9224 14389 1 0.16500 119244.000000
9224 14743 1 0.16500 119244.000000
9225 14390 1 0.16500 119244.000000
9225 15181 1 0.16500 119244.000000
9226 14391 1 0.16500 119244.000000
9226 15321 1 0.16500 119244.000000
9227 14391 1 0.16500 119244.000000
9227 14523 1 0.16500 119244.000000
9228 12374 1 0.16500 119244.000000
9228 14392 1 0.16500 119244.000000
9229 14393 1 0.16500 119244.000000
9229 14942 1 0.16500 119244.000000
9230 14393 1 0.16500 119244.000000
9230 14554 1 0.16500 119244.000000
9231 14393 1 0.16500 119244.000000
9231 16226 1 0.16500 119244.000000
9232 14396 1 0.16500 119244.000000
9232 15742 1 0.16500 119244.000000
9233 14396 1 0.16500 119244.000000
9233 15741 1 0.16500 119244.000000
9234 14398 1 0.16500 119244.000000
9234 15372 1 0.16500 119244.000000
9235 14398 1 0.16500 119244.000000
9235 14636 1 0.16500 119244.000000
9236 14399 1 0.16500 119244.000000
9236 15751 1 0.16500 119244.000000
9237 14399 1 0.16500 119244.000000
9237 14728 1 0.16500 119244.000000
9238 14400 1 0.16500 119244.000000
9238 16250 1 0.16500 119244.000000
9239 14400 1 0.16500 119244.000000
9239 14825 1 0.16500 119244.000000
9240 14401 1 0.16500 119244.000000
9240 15155 1 0.16500 119244.000000
9241 14401 1 0.16500 119244.000000
9241 14711 1 0.16500 119244.000000
9242 14401 1 0.16500 119244.000000
9242 16074 1 0.16500 119244.000000
9243 14402 1 0.16500 119244.000000
9243 16288 1 0.16500 119244.000000
9244 14402 1 0.16500 119244.000000
9244 14453 1 0.16500 119244.000000
9245 14403 1 0.16500 119244.000000
9245 15498 1 0.16500 119244.000000
9246 14403 1 0.16500 119244.000000
9246 14702 1 0.16500 119244.000000
9247 14403 1 0.16500 119244.000000
9247 22206 1 0.16500 119244.000000
9248 14404 1 0.16500 119244.000000
9248 15627 1 0.16500 119244.000000
9249 14404 1 0.16500 119244.000000
9249 14411 1 0.16500 119244.000000
9250 14404 1 0.16500 119244.000000
9250 14520 1 0.16500 119244.000000
9251 14405 1 0.16500 119244.000000
9251 14704 1 0.16500 119244.000000
9252 14405 1 0.16500 119244.000000
9252 15461 1 0.16500 119244.000000
9253 14406 1 0.16500 119244.000000
9253 16486 1 0.16500 119244.000000
9254 16193 1 0.16500 119244.000000
9254 21762 1 0.16500 119244.000000
9255 14407 1 0.16500 119244.000000
9255 14934 1 0.16500 119244.000000
9256 14407 1 0.16500 119244.000000
9256 14555 1 0.16500 119244.000000
9257 14408 1 0.16500 119244.000000
9257 15958 1 0.16500 119244.000000
9258 14408 1 0.16500 119244.000000
9258 15662 1 0.16500 119244.000000
9259 14409 1 0.16500 119244.000000
9259 15792 1 0.16500 119244.000000
9260 14409 1 0.16500 119244.000000
9260 14688 1 0.16500 119244.000000
9261 14410 1 0.16500 119244.000000
9261 14757 1 0.16500 119244.000000
9262 14410 1 0.16500 119244.000000
9262 15128 1 0.16500 119244.000000
9263 15866 1 0.16500 119244.000000
9263 17146 1 0.16500 119244.000000
9264 14930 1 0.16500 119244.000000
9264 17146 1 0.16500 119244.000000
9265 14411 1 0.16500 119244.000000
9265 15842 1 0.16500 119244.000000
9266 14413 1 0.16500 119244.000000
9266 15677 1 0.16500 119244.000000
9267 14413 1 0.16500 119244.000000
9267 14961 1 0.16500 119244.000000
9268 14413 1 0.16500 119244.000000
9268 16181 1 0.16500 119244.000000
9269 21765 1 0.16500 119244.000000
9269 21933 1 0.16500 119244.000000
9270 14414 1 0.16500 119244.000000
9270 21807 1 0.16500 119244.000000
9271 15012 1 0.16500 119244.000000
9271 21807 1 0.16500 119244.000000
9272 14415 1 0.16500 119244.000000
9272 15671 1 0.16500 119244.000000
9273 14415 1 0.16500 119244.000000
9273 14951 1 0.16500 119244.000000
9274 14415 1 0.16500 119244.000000
9274 16354 1 0.16500 119244.000000
9275 14416 1 0.16500 119244.000000
9275 15437 1 0.16500 119244.000000
9276 14417 1 0.16500 119244.000000
9276 22149 1 0.16500 119244.000000
9277 14418 1 0.16500 119244.000000
9277 15663 1 0.16500 119244.000000
9278 14419 1 0.16500 119244.000000
9278 16493 1 0.16500 119244.000000
9279 14420 1 0.16500 119244.000000
9279 15964 1 0.16500 119244.000000
9280 14420 1 0.16500 119244.000000
9280 14433 1 0.16500 119244.000000
9281 14420 1 0.16500 119244.000000
9281 16451 1 0.16500 119244.000000
9282 14421 1 0.16500 119244.000000
9282 14528 1 0.16500 119244.000000
9283 12178 1 0.16500 119244.000000
9283 15657 1 0.16500 119244.000000
9284 21768 1 0.16500 119244.000000
9284 21903 1 0.16500 119244.000000
9285 14423 1 0.16500 119244.000000
9285 16137 1 0.16500 119244.000000
9286 15755 1 0.16500 119244.000000
9286 21771 1 0.16500 119244.000000
9287 14424 1 0.16500 119244.000000
9287 15075 1 0.16500 119244.000000
9288 14424 1 0.16500 119244.000000
9288 14639 1 0.16500 119244.000000
9289 14425 1 0.16500 119244.000000
9289 15079 1 0.16500 119244.000000
9290 14425 1 0.16500 119244.000000
9290 15635 1 0.16500 119244.000000
9291 14425 1 0.16500 119244.000000
9291 16190 1 0.16500 119244.000000
9292 14426 1 0.16500 119244.000000
9292 15173 1 0.16500 119244.000000
9293 14426 1 0.16500 119244.000000
9293 16449 1 0.16500 119244.000000
9294 14428 1 0.16500 119244.000000
9294 15962 1 0.16500 119244.000000
9295 14429 1 0.16500 119244.000000
9295 16075 1 0.16500 119244.000000
9296 14429 1 0.16500 119244.000000
9296 15758 1 0.16500 119244.000000
9297 14430 1 0.16500 119244.000000
9297 16415 1 0.16500 119244.000000
9298 14430 1 0.16500 119244.000000
9298 14680 1 0.16500 119244.000000
9299 14430 1 0.16500 119244.000000
9299 14665 1 0.16500 119244.000000
9300 14431 1 0.16500 119244.000000
9300 15804 1 0.16500 119244.000000
9301 14431 1 0.16500 119244.000000
9301 15531 1 0.16500 119244.000000
9302 14432 1 0.16500 119244.000000
9302 15860 1 0.16500 119244.000000
9303 14432 1 0.16500 119244.000000
9303 15346 1 0.16500 119244.000000
9304 12289 1 0.16500 119244.000000
9304 14433 1 0.16500 119244.000000
9305 14434 1 0.16500 119244.000000
9305 15427 1 0.16500 119244.000000
9306 14434 1 0.16500 119244.000000
9306 15645 1 0.16500 119244.000000
9307 14434 1 0.16500 119244.000000
9307 14809 1 0.16500 119244.000000
9308 14435 1 0.16500 119244.000000
9308 15351 1 0.16500 119244.000000
9309 14437 1 0.16500 119244.000000
9309 16282 1 0.16500 119244.000000
9310 14438 1 0.16500 119244.000000
9310 14703 1 0.16500 119244.000000
9311 14438 1 0.16500 119244.000000
9311 15537 1 0.16500 119244.000000
9312 14439 1 0.16500 119244.000000
9312 15302 1 0.16500 119244.000000
9313 14439 1 0.16500 119244.000000
9313 16203 1 0.16500 119244.000000
9314 14439 1 0.16500 119244.000000
9314 14950 1 0.16500 119244.000000
9315 14441 1 0.16500 119244.000000
9315 15505 1 0.16500 119244.000000
9316 14441 1 0.16500 119244.000000
9316 15167 1 0.16500 119244.000000
9317 14442 1 0.16500 119244.000000
9317 16150 1 0.16500 119244.000000
9318 14445 1 0.16500 119244.000000
9318 14604 1 0.16500 119244.000000
9319 14445 1 0.16500 119244.000000
9319 16421 1 0.16500 119244.000000
9320 14445 1 0.16500 119244.000000
9320 14841 1 0.16500 119244.000000
9321 14446 1 0.16500 119244.000000
9321 14851 1 0.16500 119244.000000
9322 14446 1 0.16500 119244.000000
9322 16454 1 0.16500 119244.000000
9323 14447 1 0.16500 119244.000000
9323 15534 1 0.16500 119244.000000
9324 14448 1 0.16500 119244.000000
9324 15520 1 0.16500 119244.000000
9325 14448 1 0.16500 119244.000000
9325 15307 1 0.16500 119244.000000
9326 14450 1 0.16500 119244.000000
9326 15617 1 0.16500 119244.000000
9327 14450 1 0.16500 119244.000000
9327 15661 1 0.16500 119244.000000
9328 14451 1 0.16500 119244.000000
9328 15590 1 0.16500 119244.000000
9329 12032 1 0.16500 119244.000000
9329 12809 1 0.16500 119244.000000
9330 14452 1 0.16500 119244.000000
9330 15311 1 0.16500 119244.000000
9331 14453 1 0.16500 119244.000000
9331 14972 1 0.16500 119244.000000
9332 14453 1 0.16500 119244.000000
9332 16131 1 0.16500 119244.000000
9333 14453 1 0.16500 119244.000000
9333 15834 1 0.16500 119244.000000
9334 14454 1 0.16500 119244.000000
9334 15348 1 0.16500 119244.000000
9335 13424 1 0.16500 119244.000000
9335 14454 1 0.16500 119244.000000
9336 14455 1 0.16500 119244.000000
9336 15096 1 0.16500 119244.000000
9337 14456 1 0.16500 119244.000000
9337 15676 1 0.16500 119244.000000
9338 14456 1 0.16500 119244.000000
9338 15138 1 0.16500 119244.000000
9339 14457 1 0.16500 119244.000000
9339 16375 1 0.16500 119244.000000
9340 14458 1 0.16500 119244.000000
9340 15523 1 0.16500 119244.000000
9341 14458 1 0.16500 119244.000000
9341 15850 1 0.16500 119244.000000
9342 14459 1 0.16500 119244.000000
9342 16171 1 0.16500 119244.000000
9343 14459 1 0.16500 119244.000000
9343 14963 1 0.16500 119244.000000
9344 14460 1 0.16500 119244.000000
9344 22107 1 0.16500 119244.000000
9345 14460 1 0.16500 119244.000000
9345 15938 1 0.16500 119244.000000
9346 14461 1 0.16500 119244.000000
9346 15245 1 0.16500 119244.000000
9347 14462 1 0.16500 119244.000000
9347 14970 1 0.16500 119244.000000
9348 18126 1 0.16500 119244.000000
9348 21774 1 0.16500 119244.000000
9349 14463 1 0.16500 119244.000000
9349 15804 1 0.16500 119244.000000
9350 14464 1 0.16500 119244.000000
9350 14779 1 0.16500 119244.000000
9351 14465 1 0.16500 119244.000000
9351 14691 1 0.16500 119244.000000
9352 12483 1 0.16500 119244.000000
9352 14465 1 0.16500 119244.000000
9353 14466 1 0.16500 119244.000000
9353 16096 1 0.16500 119244.000000
9354 14467 1 0.16500 119244.000000
9354 16267 1 0.16500 119244.000000
9355 14468 1 0.16500 119244.000000
9355 14939 1 0.16500 119244.000000
9356 14468 1 0.16500 119244.000000
9356 15653 1 0.16500 119244.000000
9357 14469 1 0.16500 119244.000000
9357 14863 1 0.16500 119244.000000
9358 14470 1 0.16500 119244.000000
9358 15821 1 0.16500 119244.000000
9359 14819 1 0.16500 119244.000000
9359 15808 1 0.16500 119244.000000
9360 14470 1 0.16500 119244.000000
9360 14819 1 0.16500 119244.000000
9361 14471 1 0.16500 119244.000000
9361 15642 1 0.16500 119244.000000
9362 14384 1 0.16500 119244.000000
9362 15786 1 0.16500 119244.000000
9363 14473 1 0.16500 119244.000000
9363 15911 1 0.16500 119244.000000
9364 14473 1 0.16500 119244.000000
9364 14537 1 0.16500 119244.000000
9365 14474 1 0.16500 119244.000000
9365 15687 1 0.16500 119244.000000
9366 14474 1 0.16500 119244.000000
9366 15031 1 0.16500 119244.000000
9367 14474 1 0.16500 119244.000000
9367 16028 1 0.16500 119244.000000
9368 14475 1 0.16500 119244.000000
9368 16336 1 0.16500 119244.000000
9369 14475 1 0.16500 119244.000000
9369 15843 1 0.16500 119244.000000
9370 14476 1 0.16500 119244.000000
9370 14734 1 0.16500 119244.000000
9371 14477 1 0.16500 119244.000000
9371 14925 1 0.16500 119244.000000
9372 14477 1 0.16500 119244.000000
9372 15956 1 0.16500 119244.000000
9373 14478 1 0.16500 119244.000000
9373 16042 1 0.16500 119244.000000
9374 14479 1 0.16500 119244.000000
9374 14931 1 0.16500 119244.000000
9375 16112 1 0.16500 119244.000000
9375 17216 1 0.16500 119244.000000
9376 14480 1 0.16500 119244.000000
9376 16162 1 0.16500 119244.000000
9377 14480 1 0.16500 119244.000000
9377 15502 1 0.16500 119244.000000
9378 14481 1 0.16500 119244.000000
9378 15485 1 0.16500 119244.000000
9379 14481 1 0.16500 119244.000000
9379 14719 1 0.16500 119244.000000
9380 14482 1 0.16500 119244.000000
9380 15205 1 0.16500 119244.000000
9381 14482 1 0.16500 119244.000000
9381 16373 1 0.16500 119244.000000
9382 14483 1 0.16500 119244.000000
9382 16159 1 0.16500 119244.000000
9383 14483 1 0.16500 119244.000000
9383 14544 1 0.16500 119244.000000
9384 14112 1 0.16500 119244.000000
9384 14484 1 0.16500 119244.000000
9385 14485 1 0.16500 119244.000000
9385 16451 1 0.16500 119244.000000
9386 14485 1 0.16500 119244.000000
9386 14753 1 0.16500 119244.000000
9387 14485 1 0.16500 119244.000000
9387 16294 1 0.16500 119244.000000
9388 16052 1 0.16500 119244.000000
9388 21780 1 0.16500 119244.000000
9389 14486 1 0.16500 119244.000000
9389 15558 1 0.16500 119244.000000
9390 14486 1 0.16500 119244.000000
9390 14571 1 0.16500 119244.000000
9391 14487 1 0.16500 119244.000000
9391 15640 1 0.16500 119244.000000
9392 14488 1 0.16500 119244.000000
9392 14761 1 0.16500 119244.000000
9393 14489 1 0.16500 119244.000000
9393 14781 1 0.16500 119244.000000
9394 11440 1 0.16500 119244.000000
9394 14489 1 0.16500 119244.000000
9395 14489 1 0.16500 119244.000000
9395 22266 1 0.16500 119244.000000
9396 14490 1 0.16500 119244.000000
9396 16147 1 0.16500 119244.000000
9397 14492 1 0.16500 119244.000000
9397 15713 1 0.16500 119244.000000
9398 14492 1 0.16500 119244.000000
9398 14920 1 0.16500 119244.000000
9399 14492 1 0.16500 119244.000000
9399 16206 1 0.16500 119244.000000
9400 14493 1 0.16500 119244.000000
9400 14571 1 0.16500 119244.000000
9401 14494 1 0.16500 119244.000000
9401 14655 1 0.16500 119244.000000
9402 14495 1 0.16500 119244.000000
9402 22399 1 0.16500 119244.000000
9403 14495 1 0.16500 119244.000000
9403 14682 1 0.16500 119244.000000
9404 14496 1 0.16500 119244.000000
9404 15227 1 0.16500 119244.000000
9405 17230 1 0.16500 119244.000000
9405 21885 1 0.16500 119244.000000
9406 14499 1 0.16500 119244.000000
9406 15273 1 0.16500 119244.000000
9407 14500 1 0.16500 119244.000000
9407 15691 1 0.16500 119244.000000
9408 14500 1 0.16500 119244.000000
9408 16181 1 0.16500 119244.000000
9409 14501 1 0.16500 119244.000000
9409 15929 1 0.16500 119244.000000
9410 14502 1 0.16500 119244.000000
9410 15604 1 0.16500 119244.000000
9411 14502 1 0.16500 119244.000000
9411 16182 1 0.16500 119244.000000
9412 14503 1 0.16500 119244.000000
9412 14528 1 0.16500 119244.000000
9413 14503 1 0.16500 119244.000000
9413 15462 1 0.16500 119244.000000
9414 14504 1 0.16500 119244.000000
9414 15471 1 0.16500 119244.000000
9415 14505 1 0.16500 119244.000000
9415 14888 1 0.16500 119244.000000
9416 14505 1 0.16500 119244.000000
9416 15627 1 0.16500 119244.000000
9417 14505 1 0.16500 119244.000000
9417 15212 1 0.16500 119244.000000
9418 14505 1 0.16500 119244.000000
9418 16525 1 0.16500 119244.000000
9419 14506 1 0.16500 119244.000000
9419 14810 1 0.16500 119244.000000
9420 14507 1 0.16500 119244.000000
9420 16204 1 0.16500 119244.000000
9421 12990 1 0.16500 119244.000000
9421 14507 1 0.16500 119244.000000
9422 14507 1 0.16500 119244.000000
9422 15252 1 0.16500 119244.000000
9423 14508 1 0.16500 119244.000000
9423 14844 1 0.16500 119244.000000
9424 14508 1 0.16500 119244.000000
9424 21909 1 0.16500 119244.000000
9425 14508 1 0.16500 119244.000000
9425 15774 1 0.16500 119244.000000
9426 14509 1 0.16500 119244.000000
9426 14575 1 0.16500 119244.000000
9427 14510 1 0.16500 119244.000000
9427 15159 1 0.16500 119244.000000
9428 14511 1 0.16500 119244.000000
9428 14734 1 0.16500 119244.000000
9429 14511 1 0.16500 119244.000000
9429 16497 1 0.16500 119244.000000
9430 14904 1 0.16500 119244.000000
9430 17244 1 0.16500 119244.000000
9431 14512 1 0.16500 119244.000000
9431 15912 1 0.16500 119244.000000
9432 14513 1 0.16500 119244.000000
9432 14591 1 0.16500 119244.000000
9433 14513 1 0.16500 119244.000000
9433 15208 1 0.16500 119244.000000
9434 14514 1 0.16500 119244.000000
9434 16484 1 0.16500 119244.000000
9435 14515 1 0.16500 119244.000000
9435 15958 1 0.16500 119244.000000
9436 14515 1 0.16500 119244.000000
9436 16455 1 0.16500 119244.000000
9437 14516 1 0.16500 119244.000000
9437 14684 1 0.16500 119244.000000
9438 14518 1 0.16500 119244.000000
9438 15034 1 0.16500 119244.000000
9439 14518 1 0.16500 119244.000000
9439 16512 1 0.16500 119244.000000
9440 14519 1 0.16500 119244.000000
9440 15234 1 0.16500 119244.000000
9441 14520 1 0.16500 119244.000000
9441 22059 1 0.16500 119244.000000
9442 14521 1 0.16500 119244.000000
9442 15393 1 0.16500 119244.000000
9443 14521 1 0.16500 119244.000000
9443 16098 1 0.16500 119244.000000
9444 14522 1 0.16500 119244.000000
9444 16032 1 0.16500 119244.000000
9445 14523 1 0.16500 119244.000000
9445 14866 1 0.16500 119244.000000
9446 14523 1 0.16500 119244.000000
9446 15461 1 0.16500 119244.000000
9447 14523 1 0.16500 119244.000000
9447 14862 1 0.16500 119244.000000
9448 14524 1 0.16500 119244.000000
9448 15747 1 0.16500 119244.000000
9449 14524 1 0.16500 119244.000000
9449 14930 1 0.16500 119244.000000
9450 14524 1 0.16500 119244.000000
9450 16095 1 0.16500 119244.000000
9451 14525 1 0.16500 119244.000000
9451 16386 1 0.16500 119244.000000
9452 13988 1 0.16500 119244.000000
9452 14549 1 0.16500 119244.000000
9453 14526 1 0.16500 119244.000000
9453 15497 1 0.16500 119244.000000
9454 14526 1 0.16500 119244.000000
9454 14635 1 0.16500 119244.000000
9455 14527 1 0.16500 119244.000000
9455 15217 1 0.16500 119244.000000
9456 16403 1 0.16500 119244.000000
9456 17804 1 0.16500 119244.000000
9457 14528 1 0.16500 119244.000000
9457 15116 1 0.16500 119244.000000
9458 14529 1 0.16500 119244.000000
9458 21819 1 0.16500 119244.000000
9459 14530 1 0.16500 119244.000000
9459 15544 1 0.16500 119244.000000
9460 14530 1 0.16500 119244.000000
9460 21924 1 0.16500 119244.000000
9461 14531 1 0.16500 119244.000000
9461 16215 1 0.16500 119244.000000
9462 14531 1 0.16500 119244.000000
9462 16006 1 0.16500 119244.000000
9463 14531 1 0.16500 119244.000000
9463 15055 1 0.16500 119244.000000
9464 14937 1 0.16500 119244.000000
9464 17258 1 0.16500 119244.000000
9465 12867 1 0.16500 119244.000000
9465 14791 1 0.16500 119244.000000
9466 14532 1 0.16500 119244.000000
9466 15000 1 0.16500 119244.000000
9467 14533 1 0.16500 119244.000000
9467 15720 1 0.16500 119244.000000
9468 14533 1 0.16500 119244.000000
9468 14870 1 0.16500 119244.000000
9469 12608 1 0.16500 119244.000000
9469 14534 1 0.16500 119244.000000
9470 14534 1 0.16500 119244.000000
9470 16062 1 0.16500 119244.000000
9471 14534 1 0.16500 119244.000000
9471 15766 1 0.16500 119244.000000
9472 14536 1 0.16500 119244.000000
9472 15713 1 0.16500 119244.000000
9473 14537 1 0.16500 119244.000000
9473 14650 1 0.16500 119244.000000
9474 14537 1 0.16500 119244.000000
9474 16225 1 0.16500 119244.000000
9475 14538 1 0.16500 119244.000000
9475 16510 1 0.16500 119244.000000
9476 14538 1 0.16500 119244.000000
9476 15114 1 0.16500 119244.000000
9477 14538 1 0.16500 119244.000000
9477 15059 1 0.16500 119244.000000
9478 14539 1 0.16500 119244.000000
9478 16030 1 0.16500 119244.000000
9479 14540 1 0.16500 119244.000000
9479 21789 1 0.16500 119244.000000
9480 14540 1 0.16500 119244.000000
9480 15907 1 0.16500 119244.000000
9481 14541 1 0.16500 119244.000000
9481 14871 1 0.16500 119244.000000
9482 14542 1 0.16500 119244.000000
9482 15457 1 0.16500 119244.000000
9483 14543 1 0.16500 119244.000000
9483 15423 1 0.16500 119244.000000
9484 14544 1 0.16500 119244.000000
9484 16449 1 0.16500 119244.000000
9485 14483 1 0.16500 119244.000000
9485 14804 1 0.16500 119244.000000
9486 12423 1 0.16500 119244.000000
9486 15260 1 0.16500 119244.000000
9487 14545 1 0.16500 119244.000000
9487 14594 1 0.16500 119244.000000
9488 14546 1 0.16500 119244.000000
9488 16365 1 0.16500 119244.000000
9489 14546 1 0.16500 119244.000000
9489 15176 1 0.16500 119244.000000
9490 14547 1 0.16500 119244.000000
9490 14995 1 0.16500 119244.000000
9491 14547 1 0.16500 119244.000000
9491 14803 1 0.16500 119244.000000
9492 17286 1 0.16500 119244.000000
9492 21933 1 0.16500 119244.000000
9493 14548 1 0.16500 119244.000000
9493 15656 1 0.16500 119244.000000
9494 14549 1 0.16500 119244.000000
9494 14674 1 0.16500 119244.000000
9495 14550 1 0.16500 119244.000000
9495 15349 1 0.16500 119244.000000
9496 14551 1 0.16500 119244.000000
9496 14938 1 0.16500 119244.000000
9497 14552 1 0.16500 119244.000000
9497 15589 1 0.16500 119244.000000
9498 14552 1 0.16500 119244.000000
9498 15056 1 0.16500 119244.000000
9499 14553 1 0.16500 119244.000000
9499 15547 1 0.16500 119244.000000
9500 15969 1 0.16500 119244.000000
9500 17300 1 0.16500 119244.000000
9501 14555 1 0.16500 119244.000000
9501 14571 1 0.16500 119244.000000
9502 14555 1 0.16500 119244.000000
9502 15020 1 0.16500 119244.000000
9503 14557 1 0.16500 119244.000000
9503 16390 1 0.16500 119244.000000
9504 14558 1 0.16500 119244.000000
9504 22083 1 0.16500 119244.000000
9505 16205 1 0.16500 119244.000000
9505 22164 1 0.16500 119244.000000
9506 21783 1 0.16500 119244.000000
9506 22164 1 0.16500 119244.000000
9507 14559 1 0.16500 119244.000000
9507 15638 1 0.16500 119244.000000
9508 13541 1 0.16500 119244.000000
9508 14559 1 0.16500 119244.000000
9509 14560 1 0.16500 119244.000000
9509 15141 1 0.16500 119244.000000
9510 12578 1 0.16500 119244.000000
9510 15670 1 0.16500 119244.000000
9511 14561 1 0.16500 119244.000000
9511 14621 1 0.16500 119244.000000
9512 14561 1 0.16500 119244.000000
9512 15558 1 0.16500 119244.000000
9513 14563 1 0.16500 119244.000000
9513 14595 1 0.16500 119244.000000
9514 14563 1 0.16500 119244.000000
9514 15089 1 0.16500 119244.000000
9515 14563 1 0.16500 119244.000000
9515 15005 1 0.16500 119244.000000
9516 14563 1 0.16500 119244.000000
9516 16449 1 0.16500 119244.000000
9517 12116 1 0.16500 119244.000000
9517 15656 1 0.16500 119244.000000
9518 14565 1 0.16500 119244.000000
9518 15800 1 0.16500 119244.000000
9519 14566 1 0.16500 119244.000000
9519 14712 1 0.16500 119244.000000
9520 15145 1 0.16500 119244.000000
9520 21786 1 0.16500 119244.000000
9521 14567 1 0.16500 119244.000000
9521 14648 1 0.16500 119244.000000
9522 14568 1 0.16500 119244.000000
9522 16522 1 0.16500 119244.000000
9523 14569 1 0.16500 119244.000000
9523 16378 1 0.16500 119244.000000
9524 14569 1 0.16500 119244.000000
9524 16321 1 0.16500 119244.000000
9525 14570 1 0.16500 119244.000000
9525 15805 1 0.16500 119244.000000
9526 15277 1 0.16500 119244.000000
9526 21789 1 0.16500 119244.000000
9527 14572 1 0.16500 119244.000000
9527 15583 1 0.16500 119244.000000
9528 14572 1 0.16500 119244.000000
9528 15811 1 0.16500 119244.000000
9529 14573 1 0.16500 119244.000000
9529 14644 1 0.16500 119244.000000
9530 14573 1 0.16500 119244.000000
9530 14719 1 0.16500 119244.000000
9531 14573 1 0.16500 119244.000000
9531 15623 1 0.16500 119244.000000
9532 15245 1 0.16500 119244.000000
9532 15737 1 0.16500 119244.000000
9533 14574 1 0.16500 119244.000000
9533 15245 1 0.16500 119244.000000
9534 14574 1 0.16500 119244.000000
9534 16473 1 0.16500 119244.000000
9535 14575 1 0.16500 119244.000000
9535 15039 1 0.16500 119244.000000
9536 14576 1 0.16500 119244.000000
9536 16004 1 0.16500 119244.000000
9537 14576 1 0.16500 119244.000000
9537 15475 1 0.16500 119244.000000
9538 14577 1 0.16500 119244.000000
9538 14756 1 0.16500 119244.000000
9539 14577 1 0.16500 119244.000000
9539 16357 1 0.16500 119244.000000
9540 14578 1 0.16500 119244.000000
9540 14703 1 0.16500 119244.000000
9541 14579 1 0.16500 119244.000000
9541 22287 1 0.16500 119244.000000
9542 14579 1 0.16500 119244.000000
9542 17524 1 0.16500 119244.000000
9543 14579 1 0.16500 119244.000000
9543 15977 1 0.16500 119244.000000
9544 14579 1 0.16500 119244.000000
9544 14982 1 0.16500 119244.000000
9545 14580 1 0.16500 119244.000000
9545 15274 1 0.16500 119244.000000
9546 14581 1 0.16500 119244.000000
9546 16353 1 0.16500 119244.000000
9547 15013 1 0.16500 119244.000000
9547 17314 1 0.16500 119244.000000
9548 14699 1 0.16500 119244.000000
9548 17314 1 0.16500 119244.000000
9549 21603 1 0.16500 119244.000000
9549 22116 1 0.16500 119244.000000
9550 14583 1 0.16500 119244.000000
9550 15290 1 0.16500 119244.000000
9551 14583 1 0.16500 119244.000000
9551 15357 1 0.16500 119244.000000
9552 14584 1 0.16500 119244.000000
9552 16080 1 0.16500 119244.000000
9553 14584 1 0.16500 119244.000000
9553 16003 1 0.16500 119244.000000
9554 14584 1 0.16500 119244.000000
9554 15101 1 0.16500 119244.000000
9555 14585 1 0.16500 119244.000000
9555 15600 1 0.16500 119244.000000
9556 14586 1 0.16500 119244.000000
9556 14663 1 0.16500 119244.000000
9557 14586 1 0.16500 119244.000000
9557 21834 1 0.16500 119244.000000
9558 17832 1 0.16500 119244.000000
9558 20694 1 0.16500 119244.000000
9559 14587 1 0.16500 119244.000000
9559 15048 1 0.16500 119244.000000
9560 14587 1 0.16500 119244.000000
9560 15694 1 0.16500 119244.000000
9561 14588 1 0.16500 119244.000000
9561 18364 1 0.16500 119244.000000
9562 14588 1 0.16500 119244.000000
9562 21984 1 0.16500 119244.000000
9563 14942 1 0.16500 119244.000000
9563 17342 1 0.16500 119244.000000
9564 14589 1 0.16500 119244.000000
9564 14954 1 0.16500 119244.000000
9565 14590 1 0.16500 119244.000000
9565 16329 1 0.16500 119244.000000
9566 14590 1 0.16500 119244.000000
9566 16148 1 0.16500 119244.000000
9567 14513 1 0.16500 119244.000000
9567 15469 1 0.16500 119244.000000
9568 13938 1 0.16500 119244.000000
9568 17356 1 0.16500 119244.000000
9569 14592 1 0.16500 119244.000000
9569 15534 1 0.16500 119244.000000
9570 14592 1 0.16500 119244.000000
9570 15076 1 0.16500 119244.000000
9571 14593 1 0.16500 119244.000000
9571 15039 1 0.16500 119244.000000
9572 14595 1 0.16500 119244.000000
9572 15174 1 0.16500 119244.000000
9573 14596 1 0.16500 119244.000000
9573 15899 1 0.16500 119244.000000
9574 14597 1 0.16500 119244.000000
9574 22050 1 0.16500 119244.000000
9575 14597 1 0.16500 119244.000000
9575 22008 1 0.16500 119244.000000
9576 14598 1 0.16500 119244.000000
9576 22299 1 0.16500 119244.000000
9577 14598 1 0.16500 119244.000000
9577 16426 1 0.16500 119244.000000
9578 14599 1 0.16500 119244.000000
9578 22305 1 0.16500 119244.000000
9579 14600 1 0.16500 119244.000000
9579 15095 1 0.16500 119244.000000
9580 14601 1 0.16500 119244.000000
9580 16471 1 0.16500 119244.000000
9581 14602 1 0.16500 119244.000000
9581 22077 1 0.16500 119244.000000
9582 14602 1 0.16500 119244.000000
9582 15775 1 0.16500 119244.000000
9583 14602 1 0.16500 119244.000000
9583 18378 1 0.16500 119244.000000
9584 14605 1 0.16500 119244.000000
9584 16258 1 0.16500 119244.000000
9585 14605 1 0.16500 119244.000000
9585 15763 1 0.16500 119244.000000
9586 14606 1 0.16500 119244.000000
9586 16298 1 0.16500 119244.000000
9587 14607 1 0.16500 119244.000000
9587 16034 1 0.16500 119244.000000
9588 14608 1 0.16500 119244.000000
9588 16219 1 0.16500 119244.000000
9589 14608 1 0.16500 119244.000000
9589 16218 1 0.16500 119244.000000
9590 14608 1 0.16500 119244.000000
9590 15445 1 0.16500 119244.000000
9591 14610 1 0.16500 119244.000000
9591 14929 1 0.16500 119244.000000
9592 14610 1 0.16500 119244.000000
9592 14982 1 0.16500 119244.000000
9593 14611 1 0.16500 119244.000000
9593 15775 1 0.16500 119244.000000
9594 14611 1 0.16500 119244.000000
9594 15645 1 0.16500 119244.000000
9595 14612 1 0.16500 119244.000000
9595 15922 1 0.16500 119244.000000
9596 14612 1 0.16500 119244.000000
9596 14687 1 0.16500 119244.000000
9597 15230 1 0.16500 119244.000000
9597 15922 1 0.16500 119244.000000
9598 14613 1 0.16500 119244.000000
9598 14709 1 0.16500 119244.000000
9599 14613 1 0.16500 119244.000000
9599 16036 1 0.16500 119244.000000
9600 14614 1 0.16500 119244.000000
9600 15779 1 0.16500 119244.000000
9601 14845 1 0.16500 119244.000000
9601 21792 1 0.16500 119244.000000
9602 21792 1 0.16500 119244.000000
9602 21996 1 0.16500 119244.000000
9603 14615 1 0.16500 119244.000000
9603 21918 1 0.16500 119244.000000
9604 14616 1 0.16500 119244.000000
9604 15987 1 0.16500 119244.000000
9605 14616 1 0.16500 119244.000000
9605 14756 1 0.16500 119244.000000
9606 15755 1 0.16500 119244.000000
9606 21795 1 0.16500 119244.000000
9607 14617 1 0.16500 119244.000000
9607 15567 1 0.16500 119244.000000
9608 14617 1 0.16500 119244.000000
9608 15833 1 0.16500 119244.000000
9609 14618 1 0.16500 119244.000000
9609 16088 1 0.16500 119244.000000
9610 16088 1 0.16500 119244.000000
9610 16110 1 0.16500 119244.000000
9611 15994 1 0.16500 119244.000000
9611 16088 1 0.16500 119244.000000
9612 14619 1 0.16500 119244.000000
9612 16169 1 0.16500 119244.000000
9613 14619 1 0.16500 119244.000000
9613 15595 1 0.16500 119244.000000
9614 14620 1 0.16500 119244.000000
9614 15295 1 0.16500 119244.000000
9615 14620 1 0.16500 119244.000000
9615 15622 1 0.16500 119244.000000
9616 14622 1 0.16500 119244.000000
9616 15607 1 0.16500 119244.000000
9617 14622 1 0.16500 119244.000000
9617 16387 1 0.16500 119244.000000
9618 14623 1 0.16500 119244.000000
9618 15782 1 0.16500 119244.000000
9619 14624 1 0.16500 119244.000000
9619 15315 1 0.16500 119244.000000
9620 14625 1 0.16500 119244.000000
9620 16419 1 0.16500 119244.000000
9621 15013 1 0.16500 119244.000000
9621 20034 1 0.16500 119244.000000
9622 17384 1 0.16500 119244.000000
9622 17860 1 0.16500 119244.000000
9623 14629 1 0.16500 119244.000000
9623 16142 1 0.16500 119244.000000
9624 14629 1 0.16500 119244.000000
9624 16125 1 0.16500 119244.000000
9625 14629 1 0.16500 119244.000000
9625 15943 1 0.16500 119244.000000
9626 14631 1 0.16500 119244.000000
9626 16173 1 0.16500 119244.000000
9627 14631 1 0.16500 119244.000000
9627 15377 1 0.16500 119244.000000
9628 14631 1 0.16500 119244.000000
9628 15409 1 0.16500 119244.000000
9629 14631 1 0.16500 119244.000000
9629 14713 1 0.16500 119244.000000
9630 14632 1 0.16500 119244.000000
9630 16087 1 0.16500 119244.000000
9631 14632 1 0.16500 119244.000000
9631 14933 1 0.16500 119244.000000
9632 14633 1 0.16500 119244.000000
9632 15662 1 0.16500 119244.000000
9633 15487 1 0.16500 119244.000000
9633 15662 1 0.16500 119244.000000
9634 14633 1 0.16500 119244.000000
9634 16455 1 0.16500 119244.000000
9635 14634 1 0.16500 119244.000000
9635 15007 1 0.16500 119244.000000
9636 14634 1 0.16500 119244.000000
9636 15078 1 0.16500 119244.000000
9637 14635 1 0.16500 119244.000000
9637 15650 1 0.16500 119244.000000
9638 14636 1 0.16500 119244.000000
9638 16372 1 0.16500 119244.000000
9639 14636 1 0.16500 119244.000000
9639 16456 1 0.16500 119244.000000
9640 14637 1 0.16500 119244.000000
9640 15177 1 0.16500 119244.000000
9641 14638 1 0.16500 119244.000000
9641 14932 1 0.16500 119244.000000
9642 14639 1 0.16500 119244.000000
9642 22008 1 0.16500 119244.000000
9643 14639 1 0.16500 119244.000000
9643 17636 1 0.16500 119244.000000
9644 16274 1 0.16500 119244.000000
9644 17398 1 0.16500 119244.000000
9645 17398 1 0.16500 119244.000000
9645 22242 1 0.16500 119244.000000
9646 14640 1 0.16500 119244.000000
9646 15966 1 0.16500 119244.000000
9647 14640 1 0.16500 119244.000000
9647 15809 1 0.16500 119244.000000
9648 17692 1 0.16500 119244.000000
9648 21801 1 0.16500 119244.000000
9649 14642 1 0.16500 119244.000000
9649 15723 1 0.16500 119244.000000
9650 14642 1 0.16500 119244.000000
9650 15969 1 0.16500 119244.000000
9651 14642 1 0.16500 119244.000000
9651 16156 1 0.16500 119244.000000
9652 14643 1 0.16500 119244.000000
9652 15592 1 0.16500 119244.000000
9653 15256 1 0.16500 119244.000000
9653 21804 1 0.16500 119244.000000
9654 15857 1 0.16500 119244.000000
9654 21810 1 0.16500 119244.000000
9655 15521 1 0.16500 119244.000000
9655 15708 1 0.16500 119244.000000
9656 14646 1 0.16500 119244.000000
9656 15708 1 0.16500 119244.000000
9657 14647 1 0.16500 119244.000000
9657 15303 1 0.16500 119244.000000
9658 14648 1 0.16500 119244.000000
9658 15547 1 0.16500 119244.000000
9659 14648 1 0.16500 119244.000000
9659 15238 1 0.16500 119244.000000
9660 14648 1 0.16500 119244.000000
9660 16164 1 0.16500 119244.000000
9661 14649 1 0.16500 119244.000000
9661 15820 1 0.16500 119244.000000
9662 14649 1 0.16500 119244.000000
9662 15058 1 0.16500 119244.000000
9663 14649 1 0.16500 119244.000000
9663 14732 1 0.16500 119244.000000
9664 14650 1 0.16500 119244.000000
9664 16013 1 0.16500 119244.000000
9665 14651 1 0.16500 119244.000000
9665 21840 1 0.16500 119244.000000
9666 14651 1 0.16500 119244.000000
9666 15019 1 0.16500 119244.000000
9667 14652 1 0.16500 119244.000000
9667 15934 1 0.16500 119244.000000
9668 14652 1 0.16500 119244.000000
9668 22251 1 0.16500 119244.000000
9669 14652 1 0.16500 119244.000000
9669 14802 1 0.16500 119244.000000
9670 14652 1 0.16500 119244.000000
9670 15619 1 0.16500 119244.000000
9671 14653 1 0.16500 119244.000000
9671 14846 1 0.16500 119244.000000
9672 17020 1 0.16500 119244.000000
9672 21813 1 0.16500 119244.000000
9673 16328 1 0.16500 119244.000000
9673 21816 1 0.16500 119244.000000
9674 14654 1 0.16500 119244.000000
9674 14937 1 0.16500 119244.000000
9675 14655 1 0.16500 119244.000000
9675 15953 1 0.16500 119244.000000
9676 14656 1 0.16500 119244.000000
9676 14793 1 0.16500 119244.000000
9677 14657 1 0.16500 119244.000000
9677 15436 1 0.16500 119244.000000
9678 14657 1 0.16500 119244.000000
9678 21969 1 0.16500 119244.000000
9679 14657 1 0.16500 119244.000000
9679 22038 1 0.16500 119244.000000
9680 14658 1 0.16500 119244.000000
9680 16359 1 0.16500 119244.000000
9681 14658 1 0.16500 119244.000000
9681 15034 1 0.16500 119244.000000
9682 14658 1 0.16500 119244.000000
9682 15163 1 0.16500 119244.000000
9683 16417 1 0.16500 119244.000000
9683 21819 1 0.16500 119244.000000
9684 14659 1 0.16500 119244.000000
9684 15038 1 0.16500 119244.000000
9685 14660 1 0.16500 119244.000000
9685 15694 1 0.16500 119244.000000
9686 14660 1 0.16500 119244.000000
9686 15449 1 0.16500 119244.000000
9687 15701 1 0.16500 119244.000000
9687 16450 1 0.16500 119244.000000
9688 14661 1 0.16500 119244.000000
9688 16450 1 0.16500 119244.000000
9689 14662 1 0.16500 119244.000000
9689 16149 1 0.16500 119244.000000
9690 21822 1 0.16500 119244.000000
9690 22167 1 0.16500 119244.000000
9691 14663 1 0.16500 119244.000000
9691 22359 1 0.16500 119244.000000
9692 14664 1 0.16500 119244.000000
9692 16100 1 0.16500 119244.000000
9693 14665 1 0.16500 119244.000000
9693 16436 1 0.16500 119244.000000
9694 14666 1 0.16500 119244.000000
9694 14874 1 0.16500 119244.000000
9695 14666 1 0.16500 119244.000000
9695 15452 1 0.16500 119244.000000
9696 14667 1 0.16500 119244.000000
9696 16415 1 0.16500 119244.000000
9697 14667 1 0.16500 119244.000000
9697 15602 1 0.16500 119244.000000
9698 14668 1 0.16500 119244.000000
9698 15058 1 0.16500 119244.000000
9699 14669 1 0.16500 119244.000000
9699 15539 1 0.16500 119244.000000
9700 14669 1 0.16500 119244.000000
9700 16156 1 0.16500 119244.000000
9701 14669 1 0.16500 119244.000000
9701 22245 1 0.16500 119244.000000
9702 14670 1 0.16500 119244.000000
9702 14688 1 0.16500 119244.000000
9703 14670 1 0.16500 119244.000000
9703 15341 1 0.16500 119244.000000
9704 14670 1 0.16500 119244.000000
9704 15908 1 0.16500 119244.000000
9705 14671 1 0.16500 119244.000000
9705 15944 1 0.16500 119244.000000
9706 14671 1 0.16500 119244.000000
9706 15829 1 0.16500 119244.000000
9707 14830 1 0.16500 119244.000000
9707 15944 1 0.16500 119244.000000
9708 14672 1 0.16500 119244.000000
9708 15847 1 0.16500 119244.000000
9709 11710 1 0.16500 119244.000000
9709 14673 1 0.16500 119244.000000
9710 14674 1 0.16500 119244.000000
9710 15658 1 0.16500 119244.000000
9711 14674 1 0.16500 119244.000000
9711 15604 1 0.16500 119244.000000
9712 14675 1 0.16500 119244.000000
9712 15057 1 0.16500 119244.000000
9713 14675 1 0.16500 119244.000000
9713 15218 1 0.16500 119244.000000
9714 14676 1 0.16500 119244.000000
9714 15876 1 0.16500 119244.000000
9715 14676 1 0.16500 119244.000000
9715 15625 1 0.16500 119244.000000
9716 14677 1 0.16500 119244.000000
9716 16497 1 0.16500 119244.000000
9717 14677 1 0.16500 119244.000000
9717 14915 1 0.16500 119244.000000
9718 14678 1 0.16500 119244.000000
9718 14684 1 0.16500 119244.000000
9719 14679 1 0.16500 119244.000000
9719 15743 1 0.16500 119244.000000
9720 14679 1 0.16500 119244.000000
9720 15214 1 0.16500 119244.000000
9721 14679 1 0.16500 119244.000000
9721 14859 1 0.16500 119244.000000
9722 14681 1 0.16500 119244.000000
9722 15170 1 0.16500 119244.000000
9723 14681 1 0.16500 119244.000000
9723 15882 1 0.16500 119244.000000
9724 14683 1 0.16500 119244.000000
9724 15755 1 0.16500 119244.000000
9725 14684 1 0.16500 119244.000000
9725 14929 1 0.16500 119244.000000
9726 14685 1 0.16500 119244.000000
9726 15958 1 0.16500 119244.000000
9727 11875 1 0.16500 119244.000000
9727 21828 1 0.16500 119244.000000
9728 14686 1 0.16500 119244.000000
9728 15658 1 0.16500 119244.000000
9729 15285 1 0.16500 119244.000000
9729 15562 1 0.16500 119244.000000
9730 14687 1 0.16500 119244.000000
9730 15562 1 0.16500 119244.000000
9731 14689 1 0.16500 119244.000000
9731 15630 1 0.16500 119244.000000
9732 14690 1 0.16500 119244.000000
9732 22062 1 0.16500 119244.000000
9733 14690 1 0.16500 119244.000000
9733 15997 1 0.16500 119244.000000
9734 14690 1 0.16500 119244.000000
9734 22146 1 0.16500 119244.000000
9735 14690 1 0.16500 119244.000000
9735 16345 1 0.16500 119244.000000
9736 14691 1 0.16500 119244.000000
9736 14962 1 0.16500 119244.000000
9737 14691 1 0.16500 119244.000000
9737 15400 1 0.16500 119244.000000
9738 14691 1 0.16500 119244.000000
9738 15446 1 0.16500 119244.000000
9739 14692 1 0.16500 119244.000000
9739 15565 1 0.16500 119244.000000
9740 12965 1 0.16500 119244.000000
9740 15791 1 0.16500 119244.000000
9741 14694 1 0.16500 119244.000000
9741 15500 1 0.16500 119244.000000
9742 14695 1 0.16500 119244.000000
9742 15320 1 0.16500 119244.000000
9743 14695 1 0.16500 119244.000000
9743 15796 1 0.16500 119244.000000
9744 14696 1 0.16500 119244.000000
9744 22206 1 0.16500 119244.000000
9745 14696 1 0.16500 119244.000000
9745 16085 1 0.16500 119244.000000
9746 14697 1 0.16500 119244.000000
9746 15546 1 0.16500 119244.000000
9747 14697 1 0.16500 119244.000000
9747 15717 1 0.16500 119244.000000
9748 14698 1 0.16500 119244.000000
9748 16430 1 0.16500 119244.000000
9749 14699 1 0.16500 119244.000000
9749 16437 1 0.16500 119244.000000
9750 14699 1 0.16500 119244.000000
9750 14806 1 0.16500 119244.000000
9751 14700 1 0.16500 119244.000000
9751 22038 1 0.16500 119244.000000
9752 14700 1 0.16500 119244.000000
9752 15577 1 0.16500 119244.000000
9753 14700 1 0.16500 119244.000000
9753 15345 1 0.16500 119244.000000
9754 14701 1 0.16500 119244.000000
9754 15068 1 0.16500 119244.000000
9755 14702 1 0.16500 119244.000000
9755 14717 1 0.16500 119244.000000
9756 14702 1 0.16500 119244.000000
9756 16039 1 0.16500 119244.000000
9757 14706 1 0.16500 119244.000000
9757 15113 1 0.16500 119244.000000
9758 14706 1 0.16500 119244.000000
9758 14985 1 0.16500 119244.000000
9759 14822 1 0.16500 119244.000000
9759 15417 1 0.16500 119244.000000
9760 14708 1 0.16500 119244.000000
9760 14822 1 0.16500 119244.000000
9761 14709 1 0.16500 119244.000000
9761 14729 1 0.16500 119244.000000
9762 14710 1 0.16500 119244.000000
9762 16324 1 0.16500 119244.000000
9763 14710 1 0.16500 119244.000000
9763 15276 1 0.16500 119244.000000
9764 14736 1 0.16500 119244.000000
9764 17440 1 0.16500 119244.000000
9765 17440 1 0.16500 119244.000000
9765 17916 1 0.16500 119244.000000
9766 14711 1 0.16500 119244.000000
9766 22068 1 0.16500 119244.000000
9767 14712 1 0.16500 119244.000000
9767 15165 1 0.16500 119244.000000
9768 14712 1 0.16500 119244.000000
9768 22002 1 0.16500 119244.000000
9769 14713 1 0.16500 119244.000000
9769 14788 1 0.16500 119244.000000
9770 14713 1 0.16500 119244.000000
9770 15498 1 0.16500 119244.000000
9771 14714 1 0.16500 119244.000000
9771 16468 1 0.16500 119244.000000
9772 14714 1 0.16500 119244.000000
9772 15777 1 0.16500 119244.000000
9773 14716 1 0.16500 119244.000000
9773 15435 1 0.16500 119244.000000
9774 14717 1 0.16500 119244.000000
9774 15880 1 0.16500 119244.000000
9775 14718 1 0.16500 119244.000000
9775 15765 1 0.16500 119244.000000
9776 14719 1 0.16500 119244.000000
9776 16421 1 0.16500 119244.000000
9777 14481 1 0.16500 119244.000000
9777 15201 1 0.16500 119244.000000
9778 14720 1 0.16500 119244.000000
9778 15927 1 0.16500 119244.000000
9779 14720 1 0.16500 119244.000000
9779 15471 1 0.16500 119244.000000
9780 14721 1 0.16500 119244.000000
9780 16166 1 0.16500 119244.000000
9781 14722 1 0.16500 119244.000000
9781 15990 1 0.16500 119244.000000
9782 14722 1 0.16500 119244.000000
9782 16307 1 0.16500 119244.000000
9783 14723 1 0.16500 119244.000000
9783 16313 1 0.16500 119244.000000
9784 14723 1 0.16500 119244.000000
9784 14861 1 0.16500 119244.000000
9785 14723 1 0.16500 119244.000000
9785 15522 1 0.16500 119244.000000
9786 14724 1 0.16500 119244.000000
9786 15955 1 0.16500 119244.000000
9787 14725 1 0.16500 119244.000000
9787 14787 1 0.16500 119244.000000
9788 13215 1 0.16500 119244.000000
9788 14725 1 0.16500 119244.000000
9789 14726 1 0.16500 119244.000000
9789 15770 1 0.16500 119244.000000
9790 14727 1 0.16500 119244.000000
9790 16175 1 0.16500 119244.000000
9791 14727 1 0.16500 119244.000000
9791 15413 1 0.16500 119244.000000
9792 14727 1 0.16500 119244.000000
9792 14906 1 0.16500 119244.000000
9793 14729 1 0.16500 119244.000000
9793 16518 1 0.16500 119244.000000
9794 14730 1 0.16500 119244.000000
9794 15980 1 0.16500 119244.000000
9795 14730 1 0.16500 119244.000000
9795 15657 1 0.16500 119244.000000
9796 14731 1 0.16500 119244.000000
9796 15060 1 0.16500 119244.000000
9797 11407 1 0.16500 119244.000000
9797 14731 1 0.16500 119244.000000
9798 14733 1 0.16500 119244.000000
9798 15264 1 0.16500 119244.000000
9799 14733 1 0.16500 119244.000000
9799 15501 1 0.16500 119244.000000
9800 14735 1 0.16500 119244.000000
9800 15009 1 0.16500 119244.000000
9801 14735 1 0.16500 119244.000000
9801 15483 1 0.16500 119244.000000
9802 14736 1 0.16500 119244.000000
9802 15110 1 0.16500 119244.000000
9803 14736 1 0.16500 119244.000000
9803 21990 1 0.16500 119244.000000
9804 14738 1 0.16500 119244.000000
9804 22104 1 0.16500 119244.000000
9805 14740 1 0.16500 119244.000000
9805 14878 1 0.16500 119244.000000
9806 16495 1 0.16500 119244.000000
9806 21840 1 0.16500 119244.000000
9807 14741 1 0.16500 119244.000000
9807 22341 1 0.16500 119244.000000
9808 16235 1 0.16500 119244.000000
9808 21843 1 0.16500 119244.000000
9809 14742 1 0.16500 119244.000000
9809 14821 1 0.16500 119244.000000
9810 14742 1 0.16500 119244.000000
9810 15438 1 0.16500 119244.000000
9811 14743 1 0.16500 119244.000000
9811 14783 1 0.16500 119244.000000
9812 14743 1 0.16500 119244.000000
9812 16432 1 0.16500 119244.000000
9813 14744 1 0.16500 119244.000000
9813 14752 1 0.16500 119244.000000
9814 14744 1 0.16500 119244.000000
9814 16353 1 0.16500 119244.000000
9815 14744 1 0.16500 119244.000000
9815 15666 1 0.16500 119244.000000
9816 14745 1 0.16500 119244.000000
9816 14868 1 0.16500 119244.000000
9817 13519 1 0.16500 119244.000000
9817 14746 1 0.16500 119244.000000
9818 14746 1 0.16500 119244.000000
9818 16130 1 0.16500 119244.000000
9819 14747 1 0.16500 119244.000000
9819 15770 1 0.16500 119244.000000
9820 14747 1 0.16500 119244.000000
9820 15926 1 0.16500 119244.000000
9821 14749 1 0.16500 119244.000000
9821 15125 1 0.16500 119244.000000
9822 14750 1 0.16500 119244.000000
9822 14889 1 0.16500 119244.000000
9823 14750 1 0.16500 119244.000000
9823 21909 1 0.16500 119244.000000
9824 15037 1 0.16500 119244.000000
9824 21846 1 0.16500 119244.000000
9825 16188 1 0.16500 119244.000000
9825 17468 1 0.16500 119244.000000
9826 14752 1 0.16500 119244.000000
9826 16155 1 0.16500 119244.000000
9827 14753 1 0.16500 119244.000000
9827 22194 1 0.16500 119244.000000
9828 14753 1 0.16500 119244.000000
9828 21996 1 0.16500 119244.000000
9829 14754 1 0.16500 119244.000000
9829 15813 1 0.16500 119244.000000
9830 14754 1 0.16500 119244.000000
9830 15111 1 0.16500 119244.000000
9831 14755 1 0.16500 119244.000000
9831 16220 1 0.16500 119244.000000
9832 14755 1 0.16500 119244.000000
9832 15840 1 0.16500 119244.000000
9833 14755 1 0.16500 119244.000000
9833 16339 1 0.16500 119244.000000
9834 14756 1 0.16500 119244.000000
9834 15624 1 0.16500 119244.000000
9835 14757 1 0.16500 119244.000000
9835 22293 1 0.16500 119244.000000
9836 14758 1 0.16500 119244.000000
9836 14920 1 0.16500 119244.000000
9837 13800 1 0.16500 119244.000000
9837 14758 1 0.16500 119244.000000
9838 14758 1 0.16500 119244.000000
9838 15274 1 0.16500 119244.000000
9839 12988 1 0.16500 119244.000000
9839 14760 1 0.16500 119244.000000
9840 14760 1 0.16500 119244.000000
9840 15364 1 0.16500 119244.000000
9841 14761 1 0.16500 119244.000000
9841 15117 1 0.16500 119244.000000
9842 14761 1 0.16500 119244.000000
9842 14839 1 0.16500 119244.000000
9843 14763 1 0.16500 119244.000000
9843 14930 1 0.16500 119244.000000
9844 14763 1 0.16500 119244.000000
9844 22344 1 0.16500 119244.000000
9845 14765 1 0.16500 119244.000000
9845 16321 1 0.16500 119244.000000
9846 11613 1 0.16500 119244.000000
9846 14765 1 0.16500 119244.000000
9847 11421 1 0.16500 119244.000000
9847 14765 1 0.16500 119244.000000
9848 14766 1 0.16500 119244.000000
9848 15051 1 0.16500 119244.000000
9849 14767 1 0.16500 119244.000000
9849 15537 1 0.16500 119244.000000
9850 14767 1 0.16500 119244.000000
9850 16399 1 0.16500 119244.000000
9851 14768 1 0.16500 119244.000000
9851 15828 1 0.16500 119244.000000
9852 18196 1 0.16500 119244.000000
9852 21852 1 0.16500 119244.000000
9853 16423 1 0.16500 119244.000000
9853 21852 1 0.16500 119244.000000
9854 14769 1 0.16500 119244.000000
9854 16484 1 0.16500 119244.000000
9855 14771 1 0.16500 119244.000000
9855 15899 1 0.16500 119244.000000
9856 14771 1 0.16500 119244.000000
9856 14876 1 0.16500 119244.000000
9857 14772 1 0.16500 119244.000000
9857 16187 1 0.16500 119244.000000
9858 14773 1 0.16500 119244.000000
9858 14820 1 0.16500 119244.000000
9859 14773 1 0.16500 119244.000000
9859 18336 1 0.16500 119244.000000
9860 14774 1 0.16500 119244.000000
9860 15628 1 0.16500 119244.000000
9861 14774 1 0.16500 119244.000000
9861 15445 1 0.16500 119244.000000
9862 14775 1 0.16500 119244.000000
9862 16127 1 0.16500 119244.000000
9863 14775 1 0.16500 119244.000000
9863 16131 1 0.16500 119244.000000
9864 14776 1 0.16500 119244.000000
9864 14941 1 0.16500 119244.000000
9865 14777 1 0.16500 119244.000000
9865 15000 1 0.16500 119244.000000
9866 14777 1 0.16500 119244.000000
9866 15684 1 0.16500 119244.000000
9867 14778 1 0.16500 119244.000000
9867 15431 1 0.16500 119244.000000
9868 14778 1 0.16500 119244.000000
9868 16377 1 0.16500 119244.000000
9869 14778 1 0.16500 119244.000000
9869 15547 1 0.16500 119244.000000
9870 14779 1 0.16500 119244.000000
9870 14968 1 0.16500 119244.000000
9871 14780 1 0.16500 119244.000000
9871 15923 1 0.16500 119244.000000
9872 14780 1 0.16500 119244.000000
9872 16090 1 0.16500 119244.000000
9873 14781 1 0.16500 119244.000000
9873 15356 1 0.16500 119244.000000
9874 14781 1 0.16500 119244.000000
9874 14939 1 0.16500 119244.000000
9875 14782 1 0.16500 119244.000000
9875 16380 1 0.16500 119244.000000
9876 14782 1 0.16500 119244.000000
9876 15712 1 0.16500 119244.000000
9877 14783 1 0.16500 119244.000000
9877 22434 1 0.16500 119244.000000
9878 14783 1 0.16500 119244.000000
9878 15458 1 0.16500 119244.000000
9879 14784 1 0.16500 119244.000000
9879 15484 1 0.16500 119244.000000
9880 14785 1 0.16500 119244.000000
9880 16406 1 0.16500 119244.000000
9881 14785 1 0.16500 119244.000000
9881 15499 1 0.16500 119244.000000
9882 14786 1 0.16500 119244.000000
9882 15527 1 0.16500 119244.000000
9883 14786 1 0.16500 119244.000000
9883 15433 1 0.16500 119244.000000
9884 14787 1 0.16500 119244.000000
9884 14936 1 0.16500 119244.000000
9885 14790 1 0.16500 119244.000000
9885 16485 1 0.16500 119244.000000
9886 14793 1 0.16500 119244.000000
9886 16482 1 0.16500 119244.000000
9887 13025 1 0.16500 119244.000000
9887 15337 1 0.16500 119244.000000
9888 14795 1 0.16500 119244.000000
9888 16057 1 0.16500 119244.000000
9889 13025 1 0.16500 119244.000000
9889 14795 1 0.16500 119244.000000
9890 14796 1 0.16500 119244.000000
9890 16149 1 0.16500 119244.000000
9891 14796 1 0.16500 119244.000000
9891 16292 1 0.16500 119244.000000
9892 12831 1 0.16500 119244.000000
9892 14796 1 0.16500 119244.000000
9893 14797 1 0.16500 119244.000000
9893 15050 1 0.16500 119244.000000
9894 14797 1 0.16500 119244.000000
9894 15923 1 0.16500 119244.000000
9895 14798 1 0.16500 119244.000000
9895 16236 1 0.16500 119244.000000
9896 14799 1 0.16500 119244.000000
9896 15176 1 0.16500 119244.000000
9897 14800 1 0.16500 119244.000000
9897 16483 1 0.16500 119244.000000
9898 14800 1 0.16500 119244.000000
9898 15285 1 0.16500 119244.000000
9899 14801 1 0.16500 119244.000000
9899 18210 1 0.16500 119244.000000
9900 14803 1 0.16500 119244.000000
9900 15371 1 0.16500 119244.000000
9901 14803 1 0.16500 119244.000000
9901 15821 1 0.16500 119244.000000
9902 14803 1 0.16500 119244.000000
9902 14825 1 0.16500 119244.000000
9903 21864 1 0.16500 119244.000000
9903 22308 1 0.16500 119244.000000
9904 21864 1 0.16500 119244.000000
9904 21957 1 0.16500 119244.000000
9905 15739 1 0.16500 119244.000000
9905 21864 1 0.16500 119244.000000
9906 14804 1 0.16500 119244.000000
9906 15214 1 0.16500 119244.000000
9907 14804 1 0.16500 119244.000000
9907 16120 1 0.16500 119244.000000
9908 14805 1 0.16500 119244.000000
9908 15270 1 0.16500 119244.000000
9909 14805 1 0.16500 119244.000000
9909 15384 1 0.16500 119244.000000
9910 14806 1 0.16500 119244.000000
9910 15097 1 0.16500 119244.000000
9911 14807 1 0.16500 119244.000000
9911 15746 1 0.16500 119244.000000
9912 14808 1 0.16500 119244.000000
9912 16300 1 0.16500 119244.000000
9913 14809 1 0.16500 119244.000000
9913 15971 1 0.16500 119244.000000
9914 14812 1 0.16500 119244.000000
9914 15646 1 0.16500 119244.000000
9915 14812 1 0.16500 119244.000000
9915 15003 1 0.16500 119244.000000
9916 14813 1 0.16500 119244.000000
9916 14992 1 0.16500 119244.000000
9917 14814 1 0.16500 119244.000000
9917 16153 1 0.16500 119244.000000
9918 14814 1 0.16500 119244.000000
9918 15031 1 0.16500 119244.000000
9919 14815 1 0.16500 119244.000000
9919 15340 1 0.16500 119244.000000
9920 14815 1 0.16500 119244.000000
9920 15934 1 0.16500 119244.000000
9921 14816 1 0.16500 119244.000000
9921 15936 1 0.16500 119244.000000
9922 14186 1 0.16500 119244.000000
9922 14817 1 0.16500 119244.000000
9923 12860 1 0.16500 119244.000000
9923 16486 1 0.16500 119244.000000
9924 14818 1 0.16500 119244.000000
9924 16390 1 0.16500 119244.000000
9925 14818 1 0.16500 119244.000000
9925 15047 1 0.16500 119244.000000
9926 14819 1 0.16500 119244.000000
9926 15458 1 0.16500 119244.000000
9927 14820 1 0.16500 119244.000000
9927 22161 1 0.16500 119244.000000
9928 14821 1 0.16500 119244.000000
9928 16069 1 0.16500 119244.000000
9929 14823 1 0.16500 119244.000000
9929 15432 1 0.16500 119244.000000
9930 15990 1 0.16500 119244.000000
9930 21870 1 0.16500 119244.000000
9931 14824 1 0.16500 119244.000000
9931 16177 1 0.16500 119244.000000
9932 14824 1 0.16500 119244.000000
9932 15474 1 0.16500 119244.000000
9933 16056 1 0.16500 119244.000000
9933 21873 1 0.16500 119244.000000
9934 14825 1 0.16500 119244.000000
9934 15133 1 0.16500 119244.000000
9935 14826 1 0.16500 119244.000000
9935 14876 1 0.16500 119244.000000
9936 14827 1 0.16500 119244.000000
9936 15588 1 0.16500 119244.000000
9937 14827 1 0.16500 119244.000000
9937 15492 1 0.16500 119244.000000
9938 13516 1 0.16500 119244.000000
9938 14828 1 0.16500 119244.000000
9939 12380 1 0.16500 119244.000000
9939 14829 1 0.16500 119244.000000
9940 14117 1 0.16500 119244.000000
9940 15136 1 0.16500 119244.000000
9941 14830 1 0.16500 119244.000000
9941 16104 1 0.16500 119244.000000
9942 14830 1 0.16500 119244.000000
9942 14917 1 0.16500 119244.000000
9943 14832 1 0.16500 119244.000000
9943 15128 1 0.16500 119244.000000
9944 14833 1 0.16500 119244.000000
9944 15600 1 0.16500 119244.000000
9945 14834 1 0.16500 119244.000000
9945 15939 1 0.16500 119244.000000
9946 14834 1 0.16500 119244.000000
9946 15265 1 0.16500 119244.000000
9947 14835 1 0.16500 119244.000000
9947 15805 1 0.16500 119244.000000
9948 14835 1 0.16500 119244.000000
9948 15289 1 0.16500 119244.000000
9949 15583 1 0.16500 119244.000000
9949 21876 1 0.16500 119244.000000
9950 21876 1 0.16500 119244.000000
9950 22188 1 0.16500 119244.000000
9951 14836 1 0.16500 119244.000000
9951 15690 1 0.16500 119244.000000
9952 14836 1 0.16500 119244.000000
9952 15598 1 0.16500 119244.000000
9953 14836 1 0.16500 119244.000000
9953 15582 1 0.16500 119244.000000
9954 14836 1 0.16500 119244.000000
9954 15682 1 0.16500 119244.000000
9955 11584 1 0.16500 119244.000000
9955 15437 1 0.16500 119244.000000
9956 14839 1 0.16500 119244.000000
9956 14923 1 0.16500 119244.000000
9957 14840 1 0.16500 119244.000000
9957 15783 1 0.16500 119244.000000
9958 14841 1 0.16500 119244.000000
9958 15750 1 0.16500 119244.000000
9959 14842 1 0.16500 119244.000000
9959 16186 1 0.16500 119244.000000
9960 14842 1 0.16500 119244.000000
9960 16273 1 0.16500 119244.000000
9961 14843 1 0.16500 119244.000000
9961 15647 1 0.16500 119244.000000
9962 14844 1 0.16500 119244.000000
9962 16168 1 0.16500 119244.000000
9963 14844 1 0.16500 119244.000000
9963 14889 1 0.16500 119244.000000
9964 14845 1 0.16500 119244.000000
9964 15549 1 0.16500 119244.000000
9965 21879 1 0.16500 119244.000000
9965 21882 1 0.16500 119244.000000
9966 16241 1 0.16500 119244.000000
9966 21879 1 0.16500 119244.000000
9967 14846 1 0.16500 119244.000000
9967 15064 1 0.16500 119244.000000
9968 14847 1 0.16500 119244.000000
9968 15139 1 0.16500 119244.000000
9969 14618 1 0.16500 119244.000000
9969 14847 1 0.16500 119244.000000
9970 14848 1 0.16500 119244.000000
9970 15374 1 0.16500 119244.000000
9971 14850 1 0.16500 119244.000000
9971 22350 1 0.16500 119244.000000
9972 14850 1 0.16500 119244.000000
9972 15137 1 0.16500 119244.000000
9973 14851 1 0.16500 119244.000000
9973 15636 1 0.16500 119244.000000
9974 13747 1 0.16500 119244.000000
9974 14852 1 0.16500 119244.000000
9975 14852 1 0.16500 119244.000000
9975 15177 1 0.16500 119244.000000
9976 14853 1 0.16500 119244.000000
9976 15855 1 0.16500 119244.000000
9977 14854 1 0.16500 119244.000000
9977 15712 1 0.16500 119244.000000
9978 11691 1 0.16500 119244.000000
9978 16262 1 0.16500 119244.000000
9979 13671 1 0.16500 119244.000000
9979 14856 1 0.16500 119244.000000
9980 14856 1 0.16500 119244.000000
9980 15023 1 0.16500 119244.000000
9981 13250 1 0.16500 119244.000000
9981 14960 1 0.16500 119244.000000
9982 14858 1 0.16500 119244.000000
9982 16176 1 0.16500 119244.000000
9983 14859 1 0.16500 119244.000000
9983 15302 1 0.16500 119244.000000
9984 14860 1 0.16500 119244.000000
9984 15638 1 0.16500 119244.000000
9985 14860 1 0.16500 119244.000000
9985 15832 1 0.16500 119244.000000
9986 14861 1 0.16500 119244.000000
9986 16458 1 0.16500 119244.000000
9987 14863 1 0.16500 119244.000000
9987 15581 1 0.16500 119244.000000
9988 14864 1 0.16500 119244.000000
9988 15315 1 0.16500 119244.000000
9989 14864 1 0.16500 119244.000000
9989 15794 1 0.16500 119244.000000
9990 17538 1 0.16500 119244.000000
9990 22128 1 0.16500 119244.000000
9991 14865 1 0.16500 119244.000000
9991 17972 1 0.16500 119244.000000
9992 14865 1 0.16500 119244.000000
9992 22149 1 0.16500 119244.000000
9993 15593 1 0.16500 119244.000000
9993 21885 1 0.16500 119244.000000
9994 15412 1 0.16500 119244.000000
9994 15752 1 0.16500 119244.000000
9995 15752 1 0.16500 119244.000000
9995 21885 1 0.16500 119244.000000
9996 14866 1 0.16500 119244.000000
9996 15948 1 0.16500 119244.000000
9997 14869 1 0.16500 119244.000000
9997 15509 1 0.16500 119244.000000
9998 14869 1 0.16500 119244.000000
9998 15862 1 0.16500 119244.000000
9999 12776 1 0.16500 119244.000000
9999 14870 1 0.16500 119244.000000
10000 14870 1 0.16500 119244.000000
10000 14957 1 0.16500 119244.000000
10001 14870 1 0.16500 119244.000000
10001 15790 1 0.16500 119244.000000
10002 14872 1 0.16500 119244.000000
10002 15448 1 0.16500 119244.000000
10003 14872 1 0.16500 119244.000000
10003 15556 1 0.16500 119244.000000
10004 14872 1 0.16500 119244.000000
10004 22305 1 0.16500 119244.000000
10005 14873 1 0.16500 119244.000000
10005 16155 1 0.16500 119244.000000
10006 14873 1 0.16500 119244.000000
10006 15294 1 0.16500 119244.000000
10007 14874 1 0.16500 119244.000000
10007 16395 1 0.16500 119244.000000
10008 14875 1 0.16500 119244.000000
10008 15394 1 0.16500 119244.000000
10009 14876 1 0.16500 119244.000000
10009 15343 1 0.16500 119244.000000
10010 14877 1 0.16500 119244.000000
10010 14965 1 0.16500 119244.000000
10011 14877 1 0.16500 119244.000000
10011 16414 1 0.16500 119244.000000
10012 21888 1 0.16500 119244.000000
10012 21927 1 0.16500 119244.000000
10013 14879 1 0.16500 119244.000000
10013 15856 1 0.16500 119244.000000
10014 14879 1 0.16500 119244.000000
10014 15429 1 0.16500 119244.000000
10015 14880 1 0.16500 119244.000000
10015 15188 1 0.16500 119244.000000
10016 14881 1 0.16500 119244.000000
10016 15956 1 0.16500 119244.000000
10017 14881 1 0.16500 119244.000000
10017 16161 1 0.16500 119244.000000
10018 14882 1 0.16500 119244.000000
10018 15939 1 0.16500 119244.000000
10019 14882 1 0.16500 119244.000000
10019 15456 1 0.16500 119244.000000
10020 14882 1 0.16500 119244.000000
10020 15888 1 0.16500 119244.000000
10021 14977 1 0.16500 119244.000000
10021 21891 1 0.16500 119244.000000
10022 13169 1 0.16500 119244.000000
10022 14883 1 0.16500 119244.000000
10023 14883 1 0.16500 119244.000000
10023 16262 1 0.16500 119244.000000
10024 13169 1 0.16500 119244.000000
10024 16413 1 0.16500 119244.000000
10025 14884 1 0.16500 119244.000000
10025 15810 1 0.16500 119244.000000
10026 14885 1 0.16500 119244.000000
10026 16180 1 0.16500 119244.000000
10027 14886 1 0.16500 119244.000000
10027 15178 1 0.16500 119244.000000
10028 13989 1 0.16500 119244.000000
10028 14886 1 0.16500 119244.000000
10029 14888 1 0.16500 119244.000000
10029 15459 1 0.16500 119244.000000
10030 14890 1 0.16500 119244.000000
10030 16118 1 0.16500 119244.000000
10031 14891 1 0.16500 119244.000000
10031 15097 1 0.16500 119244.000000
10032 15326 1 0.16500 119244.000000
10032 21270 1 0.16500 119244.000000
10033 14892 1 0.16500 119244.000000
10033 17930 1 0.16500 119244.000000
10034 21894 1 0.16500 119244.000000
10034 21987 1 0.16500 119244.000000
10035 15427 1 0.16500 119244.000000
10035 21894 1 0.16500 119244.000000
10036 21894 1 0.16500 119244.000000
10036 22350 1 0.16500 119244.000000
10037 14896 1 0.16500 119244.000000
10037 16501 1 0.16500 119244.000000
10038 12516 1 0.16500 119244.000000
10038 14896 1 0.16500 119244.000000
10039 14897 1 0.16500 119244.000000
10039 16363 1 0.16500 119244.000000
10040 14898 1 0.16500 119244.000000
10040 15081 1 0.16500 119244.000000
10041 14899 1 0.16500 119244.000000
10041 16116 1 0.16500 119244.000000
10042 14900 1 0.16500 119244.000000
10042 15807 1 0.16500 119244.000000
10043 14900 1 0.16500 119244.000000
10043 16263 1 0.16500 119244.000000
10044 14902 1 0.16500 119244.000000
10044 16307 1 0.16500 119244.000000
10045 14902 1 0.16500 119244.000000
10045 15834 1 0.16500 119244.000000
10046 14903 1 0.16500 119244.000000
10046 22239 1 0.16500 119244.000000
10047 14903 1 0.16500 119244.000000
10047 22263 1 0.16500 119244.000000
10048 14904 1 0.16500 119244.000000
10048 21954 1 0.16500 119244.000000
10049 14905 1 0.16500 119244.000000
10049 22203 1 0.16500 119244.000000
10050 14905 1 0.16500 119244.000000
10050 15542 1 0.16500 119244.000000
10051 14906 1 0.16500 119244.000000
10051 15311 1 0.16500 119244.000000
10052 13072 1 0.16500 119244.000000
10052 16432 1 0.16500 119244.000000
10053 14908 1 0.16500 119244.000000
10053 22449 1 0.16500 119244.000000
10054 14909 1 0.16500 119244.000000
10054 15072 1 0.16500 119244.000000
10055 13056 1 0.16500 119244.000000
10055 15013 1 0.16500 119244.000000
10056 14911 1 0.16500 119244.000000
10056 16443 1 0.16500 119244.000000
10057 14912 1 0.16500 119244.000000
10057 16178 1 0.16500 119244.000000
10058 14912 1 0.16500 119244.000000
10058 15845 1 0.16500 119244.000000
10059 14914 1 0.16500 119244.000000
10059 16507 1 0.16500 119244.000000
10060 14914 1 0.16500 119244.000000
10060 15728 1 0.16500 119244.000000
10061 14914 1 0.16500 119244.000000
10061 16023 1 0.16500 119244.000000
10062 15442 1 0.16500 119244.000000
10062 16349 1 0.16500 119244.000000
10063 13875 1 0.16500 119244.000000
10063 18266 1 0.16500 119244.000000
10064 14916 1 0.16500 119244.000000
10064 16040 1 0.16500 119244.000000
10065 14918 1 0.16500 119244.000000
10065 16296 1 0.16500 119244.000000
10066 14918 1 0.16500 119244.000000
10066 15693 1 0.16500 119244.000000
10067 14919 1 0.16500 119244.000000
10067 15940 1 0.16500 119244.000000
10068 15373 1 0.16500 119244.000000
10068 21897 1 0.16500 119244.000000
10069 19074 1 0.16500 119244.000000
10069 21897 1 0.16500 119244.000000
10070 14923 1 0.16500 119244.000000
10070 16065 1 0.16500 119244.000000
10071 14924 1 0.16500 119244.000000
10071 15005 1 0.16500 119244.000000
10072 14925 1 0.16500 119244.000000
10072 15258 1 0.16500 119244.000000
10073 14925 1 0.16500 119244.000000
10073 16113 1 0.16500 119244.000000
10074 14926 1 0.16500 119244.000000
10074 15864 1 0.16500 119244.000000
10075 12966 1 0.16500 119244.000000
10075 16247 1 0.16500 119244.000000
10076 14927 1 0.16500 119244.000000
10076 15399 1 0.16500 119244.000000
10077 14928 1 0.16500 119244.000000
10077 16261 1 0.16500 119244.000000
10078 14928 1 0.16500 119244.000000
10078 16311 1 0.16500 119244.000000
10079 14928 1 0.16500 119244.000000
10079 16344 1 0.16500 119244.000000
10080 21102 1 0.16500 119244.000000
10080 22155 1 0.16500 119244.000000
10081 15435 1 0.16500 119244.000000
10081 21900 1 0.16500 119244.000000
10082 14479 1 0.16500 119244.000000
10082 18028 1 0.16500 119244.000000
10083 17580 1 0.16500 119244.000000
10083 22341 1 0.16500 119244.000000
10084 15844 1 0.16500 119244.000000
10084 20262 1 0.16500 119244.000000
10085 16064 1 0.16500 119244.000000
10085 21903 1 0.16500 119244.000000
10086 15144 1 0.16500 119244.000000
10086 21903 1 0.16500 119244.000000
10087 14933 1 0.16500 119244.000000
10087 22329 1 0.16500 119244.000000
10088 14934 1 0.16500 119244.000000
10088 15068 1 0.16500 119244.000000
10089 14935 1 0.16500 119244.000000
10089 15741 1 0.16500 119244.000000
10090 14936 1 0.16500 119244.000000
10090 15171 1 0.16500 119244.000000
10091 14938 1 0.16500 119244.000000
10091 16005 1 0.16500 119244.000000
10092 11666 1 0.16500 119244.000000
10092 14938 1 0.16500 119244.000000
10093 14939 1 0.16500 119244.000000
10093 16410 1 0.16500 119244.000000
10094 14939 1 0.16500 119244.000000
10094 14978 1 0.16500 119244.000000
10095 14940 1 0.16500 119244.000000
10095 16124 1 0.16500 119244.000000
10096 14940 1 0.16500 119244.000000
10096 16150 1 0.16500 119244.000000
10097 14941 1 0.16500 119244.000000
10097 15151 1 0.16500 119244.000000
10098 14946 1 0.16500 119244.000000
10098 16249 1 0.16500 119244.000000
10099 14946 1 0.16500 119244.000000
10099 15594 1 0.16500 119244.000000
10100 14946 1 0.16500 119244.000000
10100 15640 1 0.16500 119244.000000
10101 14947 1 0.16500 119244.000000
10101 16416 1 0.16500 119244.000000
10102 14948 1 0.16500 119244.000000
10102 16373 1 0.16500 119244.000000
10103 14948 1 0.16500 119244.000000
10103 16333 1 0.16500 119244.000000
10104 21906 1 0.16500 119244.000000
10104 21972 1 0.16500 119244.000000
10105 15629 1 0.16500 119244.000000
10105 19890 1 0.16500 119244.000000
10106 14951 1 0.16500 119244.000000
10106 16397 1 0.16500 119244.000000
10107 14952 1 0.16500 119244.000000
10107 16370 1 0.16500 119244.000000
10108 14953 1 0.16500 119244.000000
10108 15566 1 0.16500 119244.000000
10109 14953 1 0.16500 119244.000000
10109 15939 1 0.16500 119244.000000
10110 14954 1 0.16500 119244.000000
10110 14973 1 0.16500 119244.000000
10111 14954 1 0.16500 119244.000000
10111 15545 1 0.16500 119244.000000
10112 14955 1 0.16500 119244.000000
10112 15054 1 0.16500 119244.000000
10113 14955 1 0.16500 119244.000000
10113 15876 1 0.16500 119244.000000
10114 14956 1 0.16500 119244.000000
10114 14975 1 0.16500 119244.000000
10115 14957 1 0.16500 119244.000000
10115 16405 1 0.16500 119244.000000
10116 14957 1 0.16500 119244.000000
10116 15008 1 0.16500 119244.000000
10117 14958 1 0.16500 119244.000000
10117 16259 1 0.16500 119244.000000
10118 14958 1 0.16500 119244.000000
10118 14974 1 0.16500 119244.000000
10119 13963 1 0.16500 119244.000000
10119 16084 1 0.16500 119244.000000
10120 14960 1 0.16500 119244.000000
10120 15001 1 0.16500 119244.000000
10121 15404 1 0.16500 119244.000000
10121 21912 1 0.16500 119244.000000
10122 14962 1 0.16500 119244.000000
10122 15520 1 0.16500 119244.000000
10123 14963 1 0.16500 119244.000000
10123 15463 1 0.16500 119244.000000
10124 21915 1 0.16500 119244.000000
10124 22364 1 0.16500 119244.000000
10125 14965 1 0.16500 119244.000000
10125 15209 1 0.16500 119244.000000
10126 14965 1 0.16500 119244.000000
10126 15523 1 0.16500 119244.000000
10127 14966 1 0.16500 119244.000000
10127 16326 1 0.16500 119244.000000
10128 14967 1 0.16500 119244.000000
10128 15884 1 0.16500 119244.000000
10129 14969 1 0.16500 119244.000000
10129 15008 1 0.16500 119244.000000
10130 14969 1 0.16500 119244.000000
10130 15882 1 0.16500 119244.000000
10131 14970 1 0.16500 119244.000000
10131 15407 1 0.16500 119244.000000
10132 14971 1 0.16500 119244.000000
10132 15524 1 0.16500 119244.000000
10133 14971 1 0.16500 119244.000000
10133 15106 1 0.16500 119244.000000
10134 14088 1 0.16500 119244.000000
10134 14971 1 0.16500 119244.000000
10135 14971 1 0.16500 119244.000000
10135 15122 1 0.16500 119244.000000
10136 14972 1 0.16500 119244.000000
10136 15979 1 0.16500 119244.000000
10137 14973 1 0.16500 119244.000000
10137 15094 1 0.16500 119244.000000
10138 14974 1 0.16500 119244.000000
10138 15776 1 0.16500 119244.000000
10139 14976 1 0.16500 119244.000000
10139 15399 1 0.16500 119244.000000
10140 18056 1 0.16500 119244.000000
10140 21918 1 0.16500 119244.000000
10141 15862 1 0.16500 119244.000000
10141 21921 1 0.16500 119244.000000
10142 14979 1 0.16500 119244.000000
10142 15403 1 0.16500 119244.000000
10143 16029 1 0.16500 119244.000000
10143 17622 1 0.16500 119244.000000
10144 14980 1 0.16500 119244.000000
10144 16019 1 0.16500 119244.000000
10145 14981 1 0.16500 119244.000000
10145 15700 1 0.16500 119244.000000
10146 14981 1 0.16500 119244.000000
10146 22176 1 0.16500 119244.000000
10147 14981 1 0.16500 119244.000000
10147 15396 1 0.16500 119244.000000
10148 21924 1 0.16500 119244.000000
10148 22356 1 0.16500 119244.000000
10149 21924 1 0.16500 119244.000000
10149 21990 1 0.16500 119244.000000
10150 15282 1 0.16500 119244.000000
10150 15783 1 0.16500 119244.000000
10151 14983 1 0.16500 119244.000000
10151 15783 1 0.16500 119244.000000
10152 14984 1 0.16500 119244.000000
10152 16475 1 0.16500 119244.000000
10153 14986 1 0.16500 119244.000000
10153 15194 1 0.16500 119244.000000
10154 14986 1 0.16500 119244.000000
10154 15547 1 0.16500 119244.000000
10155 14987 1 0.16500 119244.000000
10155 15455 1 0.16500 119244.000000
10156 12736 1 0.16500 119244.000000
10156 16385 1 0.16500 119244.000000
10157 14988 1 0.16500 119244.000000
10157 16497 1 0.16500 119244.000000
10158 14989 1 0.16500 119244.000000
10158 22308 1 0.16500 119244.000000
10159 14990 1 0.16500 119244.000000
10159 15144 1 0.16500 119244.000000
10160 14991 1 0.16500 119244.000000
10160 16120 1 0.16500 119244.000000
10161 14993 1 0.16500 119244.000000
10161 15638 1 0.16500 119244.000000
10162 14993 1 0.16500 119244.000000
10162 15131 1 0.16500 119244.000000
10163 14994 1 0.16500 119244.000000
10163 15987 1 0.16500 119244.000000
10164 14994 1 0.16500 119244.000000
10164 15158 1 0.16500 119244.000000
10165 18392 1 0.16500 119244.000000
10165 21927 1 0.16500 119244.000000
10166 14996 1 0.16500 119244.000000
10166 15290 1 0.16500 119244.000000
10167 14997 1 0.16500 119244.000000
10167 15205 1 0.16500 119244.000000
10168 14998 1 0.16500 119244.000000
10168 16489 1 0.16500 119244.000000
10169 14998 1 0.16500 119244.000000
10169 15984 1 0.16500 119244.000000
10170 15000 1 0.16500 119244.000000
10170 16183 1 0.16500 119244.000000
10171 15001 1 0.16500 119244.000000
10171 15311 1 0.16500 119244.000000
10172 15002 1 0.16500 119244.000000
10172 16277 1 0.16500 119244.000000
10173 15002 1 0.16500 119244.000000
10173 15351 1 0.16500 119244.000000
10174 15003 1 0.16500 119244.000000
10174 16493 1 0.16500 119244.000000
10175 15004 1 0.16500 119244.000000
10175 15470 1 0.16500 119244.000000
10176 15004 1 0.16500 119244.000000
10176 15099 1 0.16500 119244.000000
10177 15005 1 0.16500 119244.000000
10177 16016 1 0.16500 119244.000000
10178 15006 1 0.16500 119244.000000
10178 15690 1 0.16500 119244.000000
10179 15006 1 0.16500 119244.000000
10179 15470 1 0.16500 119244.000000
10180 15006 1 0.16500 119244.000000
10180 16490 1 0.16500 119244.000000
10181 15008 1 0.16500 119244.000000
10181 15170 1 0.16500 119244.000000
10182 15008 1 0.16500 119244.000000
10182 16024 1 0.16500 119244.000000
10183 15009 1 0.16500 119244.000000
10183 16489 1 0.16500 119244.000000
10184 15009 1 0.16500 119244.000000
10184 15727 1 0.16500 119244.000000
10185 16044 1 0.16500 119244.000000
10185 21930 1 0.16500 119244.000000
10186 15010 1 0.16500 119244.000000
10186 15463 1 0.16500 119244.000000
10187 15011 1 0.16500 119244.000000
10187 15973 1 0.16500 119244.000000
10188 15011 1 0.16500 119244.000000
10188 15395 1 0.16500 119244.000000
10189 15013 1 0.16500 119244.000000
10189 15624 1 0.16500 119244.000000
10190 15014 1 0.16500 119244.000000
10190 16096 1 0.16500 119244.000000
10191 15014 1 0.16500 119244.000000
10191 16192 1 0.16500 119244.000000
10192 15015 1 0.16500 119244.000000
10192 15685 1 0.16500 119244.000000
10193 13506 1 0.16500 119244.000000
10193 15015 1 0.16500 119244.000000
10194 15016 1 0.16500 119244.000000
10194 16146 1 0.16500 119244.000000
10195 16146 1 0.16500 119244.000000
10195 19110 1 0.16500 119244.000000
10196 15017 1 0.16500 119244.000000
10196 16504 1 0.16500 119244.000000
10197 15017 1 0.16500 119244.000000
10197 21939 1 0.16500 119244.000000
10198 15018 1 0.16500 119244.000000
10198 16201 1 0.16500 119244.000000
10199 16038 1 0.16500 119244.000000
10199 21933 1 0.16500 119244.000000
10200 15019 1 0.16500 119244.000000
10200 15630 1 0.16500 119244.000000
10201 15020 1 0.16500 119244.000000
10201 15160 1 0.16500 119244.000000
10202 15020 1 0.16500 119244.000000
10202 16519 1 0.16500 119244.000000
10203 15021 1 0.16500 119244.000000
10203 15175 1 0.16500 119244.000000
10204 15022 1 0.16500 119244.000000
10204 15953 1 0.16500 119244.000000
10205 15023 1 0.16500 119244.000000
10205 15890 1 0.16500 119244.000000
10206 12001 1 0.16500 119244.000000
10206 15025 1 0.16500 119244.000000
10207 15025 1 0.16500 119244.000000
10207 15282 1 0.16500 119244.000000
10208 15025 1 0.16500 119244.000000
10208 16002 1 0.16500 119244.000000
10209 15026 1 0.16500 119244.000000
10209 15709 1 0.16500 119244.000000
10210 15026 1 0.16500 119244.000000
10210 16065 1 0.16500 119244.000000
10211 15027 1 0.16500 119244.000000
10211 15774 1 0.16500 119244.000000
10212 15027 1 0.16500 119244.000000
10212 15714 1 0.16500 119244.000000
10213 21936 1 0.16500 119244.000000
10213 22155 1 0.16500 119244.000000
10214 15028 1 0.16500 119244.000000
10214 15184 1 0.16500 119244.000000
10215 15028 1 0.16500 119244.000000
10215 16387 1 0.16500 119244.000000
10216 15029 1 0.16500 119244.000000
10216 16160 1 0.16500 119244.000000
10217 15030 1 0.16500 119244.000000
10217 15845 1 0.16500 119244.000000
10218 15031 1 0.16500 119244.000000
10218 15514 1 0.16500 119244.000000
10219 15031 1 0.16500 119244.000000
10219 15854 1 0.16500 119244.000000
10220 15032 1 0.16500 119244.000000
10220 15259 1 0.16500 119244.000000
10221 15032 1 0.16500 119244.000000
10221 21975 1 0.16500 119244.000000
10222 15032 1 0.16500 119244.000000
10222 22419 1 0.16500 119244.000000
10223 15033 1 0.16500 119244.000000
10223 15873 1 0.16500 119244.000000
10224 15034 1 0.16500 119244.000000
10224 15588 1 0.16500 119244.000000
10225 15035 1 0.16500 119244.000000
10225 16299 1 0.16500 119244.000000
10226 15035 1 0.16500 119244.000000
10226 16500 1 0.16500 119244.000000
10227 15035 1 0.16500 119244.000000
10227 16095 1 0.16500 119244.000000
10228 15036 1 0.16500 119244.000000
10228 16165 1 0.16500 119244.000000
10229 16521 1 0.16500 119244.000000
10229 21939 1 0.16500 119244.000000
10230 16076 1 0.16500 119244.000000
10230 21942 1 0.16500 119244.000000
10231 15037 1 0.16500 119244.000000
10231 15641 1 0.16500 119244.000000
10232 15038 1 0.16500 119244.000000
10232 15195 1 0.16500 119244.000000
10233 15038 1 0.16500 119244.000000
10233 15339 1 0.16500 119244.000000
10234 15039 1 0.16500 119244.000000
10234 16407 1 0.16500 119244.000000
10235 15039 1 0.16500 119244.000000
10235 16227 1 0.16500 119244.000000
10236 15040 1 0.16500 119244.000000
10236 16035 1 0.16500 119244.000000
10237 15040 1 0.16500 119244.000000
10237 15600 1 0.16500 119244.000000
10238 13217 1 0.16500 119244.000000
10238 21945 1 0.16500 119244.000000
10239 11523 1 0.16500 119244.000000
10239 21945 1 0.16500 119244.000000
10240 15042 1 0.16500 119244.000000
10240 15740 1 0.16500 119244.000000
10241 15042 1 0.16500 119244.000000
10241 15721 1 0.16500 119244.000000
10242 15043 1 0.16500 119244.000000
10242 15863 1 0.16500 119244.000000
10243 15043 1 0.16500 119244.000000
10243 15330 1 0.16500 119244.000000
10244 15044 1 0.16500 119244.000000
10244 16522 1 0.16500 119244.000000
10245 15046 1 0.16500 119244.000000
10245 16408 1 0.16500 119244.000000
10246 15047 1 0.16500 119244.000000
10246 15475 1 0.16500 119244.000000
10247 15048 1 0.16500 119244.000000
10247 15528 1 0.16500 119244.000000
10248 13604 1 0.16500 119244.000000
10248 15049 1 0.16500 119244.000000
10249 15049 1 0.16500 119244.000000
10249 16204 1 0.16500 119244.000000
10250 15050 1 0.16500 119244.000000
10250 15190 1 0.16500 119244.000000
10251 15051 1 0.16500 119244.000000
10251 15382 1 0.16500 119244.000000
10252 15051 1 0.16500 119244.000000
10252 15330 1 0.16500 119244.000000
10253 15052 1 0.16500 119244.000000
10253 15118 1 0.16500 119244.000000
10254 15052 1 0.16500 119244.000000
10254 15174 1 0.16500 119244.000000
10255 15054 1 0.16500 119244.000000
10255 16476 1 0.16500 119244.000000
10256 15055 1 0.16500 119244.000000
10256 16502 1 0.16500 119244.000000
10257 15055 1 0.16500 119244.000000
10257 15383 1 0.16500 119244.000000
10258 15057 1 0.16500 119244.000000
10258 16488 1 0.16500 119244.000000
10259 14675 1 0.16500 119244.000000
10259 15634 1 0.16500 119244.000000
10260 15059 1 0.16500 119244.000000
10260 15994 1 0.16500 119244.000000
10261 15059 1 0.16500 119244.000000
10261 16338 1 0.16500 119244.000000
10262 15060 1 0.16500 119244.000000
10262 15353 1 0.16500 119244.000000
10263 15061 1 0.16500 119244.000000
10263 15180 1 0.16500 119244.000000
10264 15061 1 0.16500 119244.000000
10264 16272 1 0.16500 119244.000000
10265 15062 1 0.16500 119244.000000
10265 15134 1 0.16500 119244.000000
10266 14769 1 0.16500 119244.000000
10266 15063 1 0.16500 119244.000000
10267 15063 1 0.16500 119244.000000
10267 15684 1 0.16500 119244.000000
10268 15064 1 0.16500 119244.000000
10268 15653 1 0.16500 119244.000000
10269 15064 1 0.16500 119244.000000
10269 15794 1 0.16500 119244.000000
10270 15066 1 0.16500 119244.000000
10270 21972 1 0.16500 119244.000000
10271 15066 1 0.16500 119244.000000
10271 15197 1 0.16500 119244.000000
10272 13979 1 0.16500 119244.000000
10272 16413 1 0.16500 119244.000000
10273 15067 1 0.16500 119244.000000
10273 16075 1 0.16500 119244.000000
10274 15070 1 0.16500 119244.000000
10274 16487 1 0.16500 119244.000000
10275 11409 1 0.16500 119244.000000
10275 15963 1 0.16500 119244.000000
10276 15419 1 0.16500 119244.000000
10276 17678 1 0.16500 119244.000000
10277 15072 1 0.16500 119244.000000
10277 15816 1 0.16500 119244.000000
10278 15072 1 0.16500 119244.000000
10278 15209 1 0.16500 119244.000000
10279 15073 1 0.16500 119244.000000
10279 16138 1 0.16500 119244.000000
10280 15073 1 0.16500 119244.000000
10280 16498 1 0.16500 119244.000000
10281 15074 1 0.16500 119244.000000
10281 15114 1 0.16500 119244.000000
10282 15076 1 0.16500 119244.000000
10282 15778 1 0.16500 119244.000000
10283 15076 1 0.16500 119244.000000
10283 15119 1 0.16500 119244.000000
10284 15077 1 0.16500 119244.000000
10284 16289 1 0.16500 119244.000000
10285 12609 1 0.16500 119244.000000
10285 16183 1 0.16500 119244.000000
10286 15079 1 0.16500 119244.000000
10286 22131 1 0.16500 119244.000000
10287 15081 1 0.16500 119244.000000
10287 16402 1 0.16500 119244.000000
10288 15082 1 0.16500 119244.000000
10288 16217 1 0.16500 119244.000000
10289 15083 1 0.16500 119244.000000
10289 15283 1 0.16500 119244.000000
10290 11932 1 0.16500 119244.000000
10290 12998 1 0.16500 119244.000000
10291 15084 1 0.16500 119244.000000
10291 15210 1 0.16500 119244.000000
10292 15087 1 0.16500 119244.000000
10292 16517 1 0.16500 119244.000000
10293 15088 1 0.16500 119244.000000
10293 15163 1 0.16500 119244.000000
10294 15088 1 0.16500 119244.000000
10294 16177 1 0.16500 119244.000000
10295 15089 1 0.16500 119244.000000
10295 15334 1 0.16500 119244.000000
10296 14003 1 0.16500 119244.000000
10296 21954 1 0.16500 119244.000000
10297 15094 1 0.16500 119244.000000
10297 16524 1 0.16500 119244.000000
10298 15094 1 0.16500 119244.000000
10298 16498 1 0.16500 119244.000000
10299 15096 1 0.16500 119244.000000
10299 16317 1 0.16500 119244.000000
10300 15100 1 0.16500 119244.000000
10300 15699 1 0.16500 119244.000000
10301 15100 1 0.16500 119244.000000
10301 15992 1 0.16500 119244.000000
10302 15514 1 0.16500 119244.000000
10302 15699 1 0.16500 119244.000000
10303 15101 1 0.16500 119244.000000
10303 16064 1 0.16500 119244.000000
10304 15102 1 0.16500 119244.000000
10304 15323 1 0.16500 119244.000000
10305 15103 1 0.16500 119244.000000
10305 16009 1 0.16500 119244.000000
10306 16084 1 0.16500 119244.000000
10306 21993 1 0.16500 119244.000000
10307 17706 1 0.16500 119244.000000
10307 21993 1 0.16500 119244.000000
10308 15105 1 0.16500 119244.000000
10308 16042 1 0.16500 119244.000000
10309 15106 1 0.16500 119244.000000
10309 16498 1 0.16500 119244.000000
10310 15106 1 0.16500 119244.000000
10310 16138 1 0.16500 119244.000000
10311 15107 1 0.16500 119244.000000
10311 15204 1 0.16500 119244.000000
10312 15107 1 0.16500 119244.000000
10312 22032 1 0.16500 119244.000000
10313 15108 1 0.16500 119244.000000
10313 16059 1 0.16500 119244.000000
10314 15352 1 0.16500 119244.000000
10314 17720 1 0.16500 119244.000000
10315 14284 1 0.16500 119244.000000
10315 15109 1 0.16500 119244.000000
10316 15109 1 0.16500 119244.000000
10316 15354 1 0.16500 119244.000000
10317 15110 1 0.16500 119244.000000
10317 16462 1 0.16500 119244.000000
10318 15112 1 0.16500 119244.000000
10318 16010 1 0.16500 119244.000000
10319 15112 1 0.16500 119244.000000
10319 15996 1 0.16500 119244.000000
10320 15112 1 0.16500 119244.000000
10320 15839 1 0.16500 119244.000000
10321 15113 1 0.16500 119244.000000
10321 15745 1 0.16500 119244.000000
10322 15113 1 0.16500 119244.000000
10322 15515 1 0.16500 119244.000000
10323 15114 1 0.16500 119244.000000
10323 15387 1 0.16500 119244.000000
10324 15117 1 0.16500 119244.000000
10324 15628 1 0.16500 119244.000000
10325 15118 1 0.16500 119244.000000
10325 15507 1 0.16500 119244.000000
10326 15118 1 0.16500 119244.000000
10326 15556 1 0.16500 119244.000000
10327 15119 1 0.16500 119244.000000
10327 15580 1 0.16500 119244.000000
10328 15120 1 0.16500 119244.000000
10328 15432 1 0.16500 119244.000000
10329 17734 1 0.16500 119244.000000
10329 22272 1 0.16500 119244.000000
10330 16209 1 0.16500 119244.000000
10330 17748 1 0.16500 119244.000000
10331 15121 1 0.16500 119244.000000
10331 15291 1 0.16500 119244.000000
10332 12301 1 0.16500 119244.000000
10332 15121 1 0.16500 119244.000000
10333 15123 1 0.16500 119244.000000
10333 15916 1 0.16500 119244.000000
10334 15124 1 0.16500 119244.000000
10334 15811 1 0.16500 119244.000000
10335 15124 1 0.16500 119244.000000
10335 15176 1 0.16500 119244.000000
10336 15126 1 0.16500 119244.000000
10336 15445 1 0.16500 119244.000000
10337 15127 1 0.16500 119244.000000
10337 15831 1 0.16500 119244.000000
10338 15127 1 0.16500 119244.000000
10338 15989 1 0.16500 119244.000000
10339 15674 1 0.16500 119244.000000
10339 16103 1 0.16500 119244.000000
10340 15129 1 0.16500 119244.000000
10340 15674 1 0.16500 119244.000000
10341 15130 1 0.16500 119244.000000
10341 15520 1 0.16500 119244.000000
10342 15131 1 0.16500 119244.000000
10342 15405 1 0.16500 119244.000000
10343 15131 1 0.16500 119244.000000
10343 16063 1 0.16500 119244.000000
10344 15132 1 0.16500 119244.000000
10344 16525 1 0.16500 119244.000000
10345 15132 1 0.16500 119244.000000
10345 15212 1 0.16500 119244.000000
10346 15133 1 0.16500 119244.000000
10346 16000 1 0.16500 119244.000000
10347 15134 1 0.16500 119244.000000
10347 16446 1 0.16500 119244.000000
10348 15135 1 0.16500 119244.000000
10348 15855 1 0.16500 119244.000000
10349 15136 1 0.16500 119244.000000
10349 15712 1 0.16500 119244.000000
10350 15137 1 0.16500 119244.000000
10350 16503 1 0.16500 119244.000000
10351 15139 1 0.16500 119244.000000
10351 16338 1 0.16500 119244.000000
10352 15139 1 0.16500 119244.000000
10352 15484 1 0.16500 119244.000000
10353 15139 1 0.16500 119244.000000
10353 16412 1 0.16500 119244.000000
10354 15140 1 0.16500 119244.000000
10354 16106 1 0.16500 119244.000000
10355 15141 1 0.16500 119244.000000
10355 22369 1 0.16500 119244.000000
10356 16409 1 0.16500 119244.000000
10356 20562 1 0.16500 119244.000000
10357 15144 1 0.16500 119244.000000
10357 16091 1 0.16500 119244.000000
10358 15145 1 0.16500 119244.000000
10358 15202 1 0.16500 119244.000000
10359 15145 1 0.16500 119244.000000
10359 16352 1 0.16500 119244.000000
10360 15147 1 0.16500 119244.000000
10360 16515 1 0.16500 119244.000000
10361 15147 1 0.16500 119244.000000
10361 15414 1 0.16500 119244.000000
10362 15147 1 0.16500 119244.000000
10362 15557 1 0.16500 119244.000000
10363 15148 1 0.16500 119244.000000
10363 16315 1 0.16500 119244.000000
10364 15148 1 0.16500 119244.000000
10364 15997 1 0.16500 119244.000000
10365 15148 1 0.16500 119244.000000
10365 15881 1 0.16500 119244.000000
10366 15149 1 0.16500 119244.000000
10366 16198 1 0.16500 119244.000000
10367 15149 1 0.16500 119244.000000
10367 15897 1 0.16500 119244.000000
10368 15150 1 0.16500 119244.000000
10368 16424 1 0.16500 119244.000000
10369 15150 1 0.16500 119244.000000
10369 15477 1 0.16500 119244.000000
10370 13852 1 0.16500 119244.000000
10370 15151 1 0.16500 119244.000000
10371 15151 1 0.16500 119244.000000
10371 22335 1 0.16500 119244.000000
10372 15152 1 0.16500 119244.000000
10372 15993 1 0.16500 119244.000000
10373 15152 1 0.16500 119244.000000
10373 15309 1 0.16500 119244.000000
10374 15152 1 0.16500 119244.000000
10374 16447 1 0.16500 119244.000000
10375 15152 1 0.16500 119244.000000
10375 16421 1 0.16500 119244.000000
10376 15155 1 0.16500 119244.000000
10376 15798 1 0.16500 119244.000000
10377 15156 1 0.16500 119244.000000
10377 16347 1 0.16500 119244.000000
10378 15157 1 0.16500 119244.000000
10378 16081 1 0.16500 119244.000000
10379 15157 1 0.16500 119244.000000
10379 16116 1 0.16500 119244.000000
10380 15157 1 0.16500 119244.000000
10380 15335 1 0.16500 119244.000000
10381 15158 1 0.16500 119244.000000
10381 15715 1 0.16500 119244.000000
10382 15158 1 0.16500 119244.000000
10382 15384 1 0.16500 119244.000000
10383 15159 1 0.16500 119244.000000
10383 15246 1 0.16500 119244.000000
10384 15160 1 0.16500 119244.000000
10384 15465 1 0.16500 119244.000000
10385 15161 1 0.16500 119244.000000
10385 22272 1 0.16500 119244.000000
10386 15161 1 0.16500 119244.000000
10386 16350 1 0.16500 119244.000000
10387 15162 1 0.16500 119244.000000
10387 16050 1 0.16500 119244.000000
10388 15162 1 0.16500 119244.000000
10388 15881 1 0.16500 119244.000000
10389 15168 1 0.16500 119244.000000
10389 16083 1 0.16500 119244.000000
10390 15168 1 0.16500 119244.000000
10390 15735 1 0.16500 119244.000000
10391 15172 1 0.16500 119244.000000
10391 16490 1 0.16500 119244.000000
10392 15173 1 0.16500 119244.000000
10392 15666 1 0.16500 119244.000000
10393 15173 1 0.16500 119244.000000
10393 16192 1 0.16500 119244.000000
10394 15173 1 0.16500 119244.000000
10394 16276 1 0.16500 119244.000000
10395 15175 1 0.16500 119244.000000
10395 15906 1 0.16500 119244.000000
10396 15178 1 0.16500 119244.000000
10396 15525 1 0.16500 119244.000000
10397 16684 1 0.16500 119244.000000
10397 17804 1 0.16500 119244.000000
10398 15179 1 0.16500 119244.000000
10398 15304 1 0.16500 119244.000000
10399 15181 1 0.16500 119244.000000
10399 15601 1 0.16500 119244.000000
10400 15182 1 0.16500 119244.000000
10400 15619 1 0.16500 119244.000000
10401 13499 1 0.16500 119244.000000
10401 16099 1 0.16500 119244.000000
10402 15184 1 0.16500 119244.000000
10402 16521 1 0.16500 119244.000000
10403 15185 1 0.16500 119244.000000
10403 15761 1 0.16500 119244.000000
10404 15185 1 0.16500 119244.000000
10404 15632 1 0.16500 119244.000000
10405 15186 1 0.16500 119244.000000
10405 15679 1 0.16500 119244.000000
10406 14030 1 0.16500 119244.000000
10406 15186 1 0.16500 119244.000000
10407 14027 1 0.16500 119244.000000
10407 15264 1 0.16500 119244.000000
10408 15188 1 0.16500 119244.000000
10408 15199 1 0.16500 119244.000000
10409 15189 1 0.16500 119244.000000
10409 17958 1 0.16500 119244.000000
10410 15190 1 0.16500 119244.000000
10410 15194 1 0.16500 119244.000000
10411 15191 1 0.16500 119244.000000
10411 16134 1 0.16500 119244.000000
10412 15192 1 0.16500 119244.000000
10412 15516 1 0.16500 119244.000000
10413 15193 1 0.16500 119244.000000
10413 22308 1 0.16500 119244.000000
10414 13649 1 0.16500 119244.000000
10414 15193 1 0.16500 119244.000000
10415 15194 1 0.16500 119244.000000
10415 16191 1 0.16500 119244.000000
10416 15196 1 0.16500 119244.000000
10416 15749 1 0.16500 119244.000000
10417 15196 1 0.16500 119244.000000
10417 15451 1 0.16500 119244.000000
10418 15197 1 0.16500 119244.000000
10418 15478 1 0.16500 119244.000000
10419 15199 1 0.16500 119244.000000
10419 16334 1 0.16500 119244.000000
10420 15199 1 0.16500 119244.000000
10420 16317 1 0.16500 119244.000000
10421 15200 1 0.16500 119244.000000
10421 15221 1 0.16500 119244.000000
10422 11621 1 0.16500 119244.000000
10422 16082 1 0.16500 119244.000000
10423 15204 1 0.16500 119244.000000
10423 15488 1 0.16500 119244.000000
10424 15206 1 0.16500 119244.000000
10424 16184 1 0.16500 119244.000000
10425 15207 1 0.16500 119244.000000
10425 22119 1 0.16500 119244.000000
10426 15208 1 0.16500 119244.000000
10426 15806 1 0.16500 119244.000000
10427 15210 1 0.16500 119244.000000
10427 15943 1 0.16500 119244.000000
10428 15211 1 0.16500 119244.000000
10428 15279 1 0.16500 119244.000000
10429 15211 1 0.16500 119244.000000
10429 16127 1 0.16500 119244.000000
10430 15212 1 0.16500 119244.000000
10430 15389 1 0.16500 119244.000000
10431 15212 1 0.16500 119244.000000
10431 15466 1 0.16500 119244.000000
10432 15213 1 0.16500 119244.000000
10432 15402 1 0.16500 119244.000000
10433 15218 1 0.16500 119244.000000
10433 18182 1 0.16500 119244.000000
10434 15220 1 0.16500 119244.000000
10434 15935 1 0.16500 119244.000000
10435 15973 1 0.16500 119244.000000
10435 21978 1 0.16500 119244.000000
10436 16366 1 0.16500 119244.000000
10436 21978 1 0.16500 119244.000000
10437 15224 1 0.16500 119244.000000
10437 15719 1 0.16500 119244.000000
10438 15224 1 0.16500 119244.000000
10438 15244 1 0.16500 119244.000000
10439 15224 1 0.16500 119244.000000
10439 22173 1 0.16500 119244.000000
10440 15224 1 0.16500 119244.000000
10440 18042 1 0.16500 119244.000000
10441 21981 1 0.16500 119244.000000
10441 22113 1 0.16500 119244.000000
10442 16007 1 0.16500 119244.000000
10442 21981 1 0.16500 119244.000000
10443 15225 1 0.16500 119244.000000
10443 15824 1 0.16500 119244.000000
10444 15226 1 0.16500 119244.000000
10444 15916 1 0.16500 119244.000000
10445 15226 1 0.16500 119244.000000
10445 16199 1 0.16500 119244.000000
10446 15227 1 0.16500 119244.000000
10446 16382 1 0.16500 119244.000000
10447 15228 1 0.16500 119244.000000
10447 15306 1 0.16500 119244.000000
10448 15229 1 0.16500 119244.000000
10448 15625 1 0.16500 119244.000000
10449 15230 1 0.16500 119244.000000
10449 16478 1 0.16500 119244.000000
10450 15230 1 0.16500 119244.000000
10450 15593 1 0.16500 119244.000000
10451 15231 1 0.16500 119244.000000
10451 15287 1 0.16500 119244.000000
10452 15231 1 0.16500 119244.000000
10452 16031 1 0.16500 119244.000000
10453 15231 1 0.16500 119244.000000
10453 15802 1 0.16500 119244.000000
10454 15233 1 0.16500 119244.000000
10454 16394 1 0.16500 119244.000000
10455 15233 1 0.16500 119244.000000
10455 16404 1 0.16500 119244.000000
10456 15235 1 0.16500 119244.000000
10456 15845 1 0.16500 119244.000000
10457 15236 1 0.16500 119244.000000
10457 22197 1 0.16500 119244.000000
10458 15237 1 0.16500 119244.000000
10458 16006 1 0.16500 119244.000000
10459 14311 1 0.16500 119244.000000
10459 15722 1 0.16500 119244.000000
10460 15238 1 0.16500 119244.000000
10460 15925 1 0.16500 119244.000000
10461 15603 1 0.16500 119244.000000
10461 21984 1 0.16500 119244.000000
10462 16019 1 0.16500 119244.000000
10462 21984 1 0.16500 119244.000000
10463 18378 1 0.16500 119244.000000
10463 21987 1 0.16500 119244.000000
10464 15240 1 0.16500 119244.000000
10464 15736 1 0.16500 119244.000000
10465 15242 1 0.16500 119244.000000
10465 16463 1 0.16500 119244.000000
10466 15243 1 0.16500 119244.000000
10466 15975 1 0.16500 119244.000000
10467 14672 1 0.16500 119244.000000
10467 15243 1 0.16500 119244.000000
10468 12344 1 0.16500 119244.000000
10468 15244 1 0.16500 119244.000000
10469 15245 1 0.16500 119244.000000
10469 15941 1 0.16500 119244.000000
10470 15247 1 0.16500 119244.000000
10470 15689 1 0.16500 119244.000000
10471 12959 1 0.16500 119244.000000
10471 15248 1 0.16500 119244.000000
10472 15248 1 0.16500 119244.000000
10472 15633 1 0.16500 119244.000000
10473 15249 1 0.16500 119244.000000
10473 16047 1 0.16500 119244.000000
10474 15249 1 0.16500 119244.000000
10474 15585 1 0.16500 119244.000000
10475 15250 1 0.16500 119244.000000
10475 15853 1 0.16500 119244.000000
10476 15251 1 0.16500 119244.000000
10476 15450 1 0.16500 119244.000000
10477 15253 1 0.16500 119244.000000
10477 15431 1 0.16500 119244.000000
10478 15255 1 0.16500 119244.000000
10478 15367 1 0.16500 119244.000000
10479 15256 1 0.16500 119244.000000
10479 15646 1 0.16500 119244.000000
10480 13355 1 0.16500 119244.000000
10480 15260 1 0.16500 119244.000000
10481 15260 1 0.16500 119244.000000
10481 16157 1 0.16500 119244.000000
10482 15261 1 0.16500 119244.000000
10482 15312 1 0.16500 119244.000000
10483 15262 1 0.16500 119244.000000
10483 16012 1 0.16500 119244.000000
10484 15263 1 0.16500 119244.000000
10484 15967 1 0.16500 119244.000000
10485 15264 1 0.16500 119244.000000
10485 15408 1 0.16500 119244.000000
10486 15265 1 0.16500 119244.000000
10486 15334 1 0.16500 119244.000000
10487 15267 1 0.16500 119244.000000
10487 15809 1 0.16500 119244.000000
10488 15267 1 0.16500 119244.000000
10488 22185 1 0.16500 119244.000000
10489 14006 1 0.16500 119244.000000
10489 15268 1 0.16500 119244.000000
10490 15268 1 0.16500 119244.000000
10490 16008 1 0.16500 119244.000000
10491 15269 1 0.16500 119244.000000
10491 15665 1 0.16500 119244.000000
10492 12437 1 0.16500 119244.000000
10492 21990 1 0.16500 119244.000000
10493 15271 1 0.16500 119244.000000
10493 15825 1 0.16500 119244.000000
10494 15274 1 0.16500 119244.000000
10494 15895 1 0.16500 119244.000000
10495 15275 1 0.16500 119244.000000
10495 16041 1 0.16500 119244.000000
10496 11968 1 0.16500 119244.000000
10496 15276 1 0.16500 119244.000000
10497 15277 1 0.16500 119244.000000
10497 16430 1 0.16500 119244.000000
10498 15278 1 0.16500 119244.000000
10498 16012 1 0.16500 119244.000000
10499 15279 1 0.16500 119244.000000
10499 15650 1 0.16500 119244.000000
10500 15280 1 0.16500 119244.000000
10500 22131 1 0.16500 119244.000000
10501 15282 1 0.16500 119244.000000
10501 16100 1 0.16500 119244.000000
10502 15286 1 0.16500 119244.000000
10502 16195 1 0.16500 119244.000000
10503 15286 1 0.16500 119244.000000
10503 16398 1 0.16500 119244.000000
10504 15288 1 0.16500 119244.000000
10504 15818 1 0.16500 119244.000000
10505 15289 1 0.16500 119244.000000
10505 16107 1 0.16500 119244.000000
10506 15289 1 0.16500 119244.000000
10506 15345 1 0.16500 119244.000000
10507 15290 1 0.16500 119244.000000
10507 15515 1 0.16500 119244.000000
10508 15292 1 0.16500 119244.000000
10508 15366 1 0.16500 119244.000000
10509 15294 1 0.16500 119244.000000
10509 16360 1 0.16500 119244.000000
10510 15294 1 0.16500 119244.000000
10510 16353 1 0.16500 119244.000000
10511 15294 1 0.16500 119244.000000
10511 15473 1 0.16500 119244.000000
10512 15296 1 0.16500 119244.000000
10512 16264 1 0.16500 119244.000000
10513 13649 1 0.16500 119244.000000
10513 22005 1 0.16500 119244.000000
10514 21612 1 0.16500 119244.000000
10514 22005 1 0.16500 119244.000000
10515 15298 1 0.16500 119244.000000
10515 15362 1 0.16500 119244.000000
10516 15298 1 0.16500 119244.000000
10516 15325 1 0.16500 119244.000000
10517 15299 1 0.16500 119244.000000
10517 15561 1 0.16500 119244.000000
10518 12570 1 0.16500 119244.000000
10518 13297 1 0.16500 119244.000000
10519 15301 1 0.16500 119244.000000
10519 15384 1 0.16500 119244.000000
10520 15302 1 0.16500 119244.000000
10520 16016 1 0.16500 119244.000000
10521 14647 1 0.16500 119244.000000
10521 15620 1 0.16500 119244.000000
10522 15304 1 0.16500 119244.000000
10522 15433 1 0.16500 119244.000000
10523 15304 1 0.16500 119244.000000
10523 15975 1 0.16500 119244.000000
10524 15306 1 0.16500 119244.000000
10524 16114 1 0.16500 119244.000000
10525 15306 1 0.16500 119244.000000
10525 16288 1 0.16500 119244.000000
10526 15307 1 0.16500 119244.000000
10526 15392 1 0.16500 119244.000000
10527 15309 1 0.16500 119244.000000
10527 15852 1 0.16500 119244.000000
10528 15310 1 0.16500 119244.000000
10528 16136 1 0.16500 119244.000000
10529 15312 1 0.16500 119244.000000
10529 16073 1 0.16500 119244.000000
10530 15313 1 0.16500 119244.000000
10530 15365 1 0.16500 119244.000000
10531 12608 1 0.16500 119244.000000
10531 15923 1 0.16500 119244.000000
10532 12608 1 0.16500 119244.000000
10532 15788 1 0.16500 119244.000000
10533 15316 1 0.16500 119244.000000
10533 16212 1 0.16500 119244.000000
10534 15317 1 0.16500 119244.000000
10534 15718 1 0.16500 119244.000000
10535 15317 1 0.16500 119244.000000
10535 15959 1 0.16500 119244.000000
10536 15318 1 0.16500 119244.000000
10536 22227 1 0.16500 119244.000000
10537 15319 1 0.16500 119244.000000
10537 16352 1 0.16500 119244.000000
10538 15320 1 0.16500 119244.000000
10538 15425 1 0.16500 119244.000000
10539 15321 1 0.16500 119244.000000
10539 15715 1 0.16500 119244.000000
10540 15322 1 0.16500 119244.000000
10540 15427 1 0.16500 119244.000000
10541 15323 1 0.16500 119244.000000
10541 15631 1 0.16500 119244.000000
10542 15323 1 0.16500 119244.000000
10542 16286 1 0.16500 119244.000000
10543 15324 1 0.16500 119244.000000
10543 15974 1 0.16500 119244.000000
10544 15325 1 0.16500 119244.000000
10544 16118 1 0.16500 119244.000000
10545 15326 1 0.16500 119244.000000
10545 22449 1 0.16500 119244.000000
10546 15327 1 0.16500 119244.000000
10546 15648 1 0.16500 119244.000000
10547 15327 1 0.16500 119244.000000
10547 15609 1 0.16500 119244.000000
10548 15328 1 0.16500 119244.000000
10548 16398 1 0.16500 119244.000000
10549 15603 1 0.16500 119244.000000
10549 17888 1 0.16500 119244.000000
10550 15329 1 0.16500 119244.000000
10550 22429 1 0.16500 119244.000000
10551 15329 1 0.16500 119244.000000
10551 22134 1 0.16500 119244.000000
10552 15329 1 0.16500 119244.000000
10552 15415 1 0.16500 119244.000000
10553 15331 1 0.16500 119244.000000
10553 16078 1 0.16500 119244.000000
10554 15332 1 0.16500 119244.000000
10554 16460 1 0.16500 119244.000000
10555 15332 1 0.16500 119244.000000
10555 22347 1 0.16500 119244.000000
10556 15333 1 0.16500 119244.000000
10556 16295 1 0.16500 119244.000000
10557 15333 1 0.16500 119244.000000
10557 16250 1 0.16500 119244.000000
10558 15333 1 0.16500 119244.000000
10558 15342 1 0.16500 119244.000000
10559 15335 1 0.16500 119244.000000
10559 16458 1 0.16500 119244.000000
10560 22011 1 0.16500 119244.000000
10560 22056 1 0.16500 119244.000000
10561 16112 1 0.16500 119244.000000
10561 22011 1 0.16500 119244.000000
10562 15336 1 0.16500 119244.000000
10562 16210 1 0.16500 119244.000000
10563 15336 1 0.16500 119244.000000
10563 15966 1 0.16500 119244.000000
10564 15336 1 0.16500 119244.000000
10564 15682 1 0.16500 119244.000000
10565 15337 1 0.16500 119244.000000
10565 15870 1 0.16500 119244.000000
10566 15338 1 0.16500 119244.000000
10566 15370 1 0.16500 119244.000000
10567 18280 1 0.16500 119244.000000
10567 22014 1 0.16500 119244.000000
10568 15339 1 0.16500 119244.000000
10568 16165 1 0.16500 119244.000000
10569 15340 1 0.16500 119244.000000
10569 22251 1 0.16500 119244.000000
10570 15340 1 0.16500 119244.000000
10570 15801 1 0.16500 119244.000000
10571 15341 1 0.16500 119244.000000
10571 15492 1 0.16500 119244.000000
10572 16212 1 0.16500 119244.000000
10572 22020 1 0.16500 119244.000000
10573 15344 1 0.16500 119244.000000
10573 16504 1 0.16500 119244.000000
10574 15345 1 0.16500 119244.000000
10574 16195 1 0.16500 119244.000000
10575 15346 1 0.16500 119244.000000
10575 15734 1 0.16500 119244.000000
10576 12831 1 0.16500 119244.000000
10576 15346 1 0.16500 119244.000000
10577 15346 1 0.16500 119244.000000
10577 16243 1 0.16500 119244.000000
10578 15348 1 0.16500 119244.000000
10578 15588 1 0.16500 119244.000000
10579 15350 1 0.16500 119244.000000
10579 16379 1 0.16500 119244.000000
10580 15350 1 0.16500 119244.000000
10580 16219 1 0.16500 119244.000000
10581 15780 1 0.16500 119244.000000
10581 22023 1 0.16500 119244.000000
10582 22023 1 0.16500 119244.000000
10582 22317 1 0.16500 119244.000000
10583 15352 1 0.16500 119244.000000
10583 16195 1 0.16500 119244.000000
10584 15353 1 0.16500 119244.000000
10584 15581 1 0.16500 119244.000000
10585 15353 1 0.16500 119244.000000
10585 15381 1 0.16500 119244.000000
10586 15354 1 0.16500 119244.000000
10586 15430 1 0.16500 119244.000000
10587 15355 1 0.16500 119244.000000
10587 22394 1 0.16500 119244.000000
10588 15356 1 0.16500 119244.000000
10588 15653 1 0.16500 119244.000000
10589 15359 1 0.16500 119244.000000
10589 16216 1 0.16500 119244.000000
10590 15360 1 0.16500 119244.000000
10590 16452 1 0.16500 119244.000000
10591 15362 1 0.16500 119244.000000
10591 15379 1 0.16500 119244.000000
10592 15891 1 0.16500 119244.000000
10592 22029 1 0.16500 119244.000000
10593 16423 1 0.16500 119244.000000
10593 22029 1 0.16500 119244.000000
10594 15363 1 0.16500 119244.000000
10594 16083 1 0.16500 119244.000000
10595 15364 1 0.16500 119244.000000
10595 16158 1 0.16500 119244.000000
10596 15365 1 0.16500 119244.000000
10596 16397 1 0.16500 119244.000000
10597 15366 1 0.16500 119244.000000
10597 15779 1 0.16500 119244.000000
10598 15367 1 0.16500 119244.000000
10598 15529 1 0.16500 119244.000000
10599 15368 1 0.16500 119244.000000
10599 15946 1 0.16500 119244.000000
10600 15369 1 0.16500 119244.000000
10600 16450 1 0.16500 119244.000000
10601 15369 1 0.16500 119244.000000
10601 16355 1 0.16500 119244.000000
10602 15372 1 0.16500 119244.000000
10602 16435 1 0.16500 119244.000000
10603 15373 1 0.16500 119244.000000
10603 22299 1 0.16500 119244.000000
10604 15373 1 0.16500 119244.000000
10604 15423 1 0.16500 119244.000000
10605 15374 1 0.16500 119244.000000
10605 15616 1 0.16500 119244.000000
10606 15375 1 0.16500 119244.000000
10606 16422 1 0.16500 119244.000000
10607 16007 1 0.16500 119244.000000
10607 22035 1 0.16500 119244.000000
10608 15378 1 0.16500 119244.000000
10608 16123 1 0.16500 119244.000000
10609 15378 1 0.16500 119244.000000
10609 16275 1 0.16500 119244.000000
10610 15379 1 0.16500 119244.000000
10610 16283 1 0.16500 119244.000000
10611 15379 1 0.16500 119244.000000
10611 15968 1 0.16500 119244.000000
10612 15381 1 0.16500 119244.000000
10612 15938 1 0.16500 119244.000000
10613 15381 1 0.16500 119244.000000
10613 16063 1 0.16500 119244.000000
10614 15383 1 0.16500 119244.000000
10614 16448 1 0.16500 119244.000000
10615 15385 1 0.16500 119244.000000
10615 16231 1 0.16500 119244.000000
10616 15387 1 0.16500 119244.000000
10616 15541 1 0.16500 119244.000000
10617 15388 1 0.16500 119244.000000
10617 15769 1 0.16500 119244.000000
10618 15388 1 0.16500 119244.000000
10618 15544 1 0.16500 119244.000000
10619 15389 1 0.16500 119244.000000
10619 16067 1 0.16500 119244.000000
10620 15393 1 0.16500 119244.000000
10620 16185 1 0.16500 119244.000000
10621 15393 1 0.16500 119244.000000
10621 15555 1 0.16500 119244.000000
10622 15394 1 0.16500 119244.000000
10622 15924 1 0.16500 119244.000000
10623 15395 1 0.16500 119244.000000
10623 16258 1 0.16500 119244.000000
10624 15395 1 0.16500 119244.000000
10624 16342 1 0.16500 119244.000000
10625 13389 1 0.16500 119244.000000
10625 15618 1 0.16500 119244.000000
10626 16477 1 0.16500 119244.000000
10626 22044 1 0.16500 119244.000000
10627 15396 1 0.16500 119244.000000
10627 15405 1 0.16500 119244.000000
10628 12800 1 0.16500 119244.000000
10628 16259 1 0.16500 119244.000000
10629 15397 1 0.16500 119244.000000
10629 15797 1 0.16500 119244.000000
10630 15397 1 0.16500 119244.000000
10630 16097 1 0.16500 119244.000000
10631 15398 1 0.16500 119244.000000
10631 15868 1 0.16500 119244.000000
10632 15402 1 0.16500 119244.000000
10632 22353 1 0.16500 119244.000000
10633 15403 1 0.16500 119244.000000
10633 15530 1 0.16500 119244.000000
10634 15405 1 0.16500 119244.000000
10634 15538 1 0.16500 119244.000000
10635 15407 1 0.16500 119244.000000
10635 15936 1 0.16500 119244.000000
10636 15407 1 0.16500 119244.000000
10636 15823 1 0.16500 119244.000000
10637 15409 1 0.16500 119244.000000
10637 16224 1 0.16500 119244.000000
10638 14037 1 0.16500 119244.000000
10638 15410 1 0.16500 119244.000000
10639 15411 1 0.16500 119244.000000
10639 16347 1 0.16500 119244.000000
10640 15411 1 0.16500 119244.000000
10640 15860 1 0.16500 119244.000000
10641 15411 1 0.16500 119244.000000
10641 15920 1 0.16500 119244.000000
10642 15411 1 0.16500 119244.000000
10642 16110 1 0.16500 119244.000000
10643 15412 1 0.16500 119244.000000
10643 15922 1 0.16500 119244.000000
10644 15413 1 0.16500 119244.000000
10644 15739 1 0.16500 119244.000000
10645 15416 1 0.16500 119244.000000
10645 16075 1 0.16500 119244.000000
10646 15416 1 0.16500 119244.000000
10646 16213 1 0.16500 119244.000000
10647 15395 1 0.16500 119244.000000
10647 15417 1 0.16500 119244.000000
10648 15418 1 0.16500 119244.000000
10648 15436 1 0.16500 119244.000000
10649 15419 1 0.16500 119244.000000
10649 19062 1 0.16500 119244.000000
10650 15420 1 0.16500 119244.000000
10650 16239 1 0.16500 119244.000000
10651 15421 1 0.16500 119244.000000
10651 16312 1 0.16500 119244.000000
10652 15421 1 0.16500 119244.000000
10652 15504 1 0.16500 119244.000000
10653 15422 1 0.16500 119244.000000
10653 16168 1 0.16500 119244.000000
10654 15423 1 0.16500 119244.000000
10654 15518 1 0.16500 119244.000000
10655 15424 1 0.16500 119244.000000
10655 16013 1 0.16500 119244.000000
10656 15424 1 0.16500 119244.000000
10656 15937 1 0.16500 119244.000000
10657 15424 1 0.16500 119244.000000
10657 15809 1 0.16500 119244.000000
10658 15425 1 0.16500 119244.000000
10658 15692 1 0.16500 119244.000000
10659 15428 1 0.16500 119244.000000
10659 15481 1 0.16500 119244.000000
10660 15429 1 0.16500 119244.000000
10660 16077 1 0.16500 119244.000000
10661 15157 1 0.16500 119244.000000
10661 15429 1 0.16500 119244.000000
10662 15430 1 0.16500 119244.000000
10662 15924 1 0.16500 119244.000000
10663 15431 1 0.16500 119244.000000
10663 15925 1 0.16500 119244.000000
10664 15432 1 0.16500 119244.000000
10664 15500 1 0.16500 119244.000000
10665 15433 1 0.16500 119244.000000
10665 15554 1 0.16500 119244.000000
10666 15435 1 0.16500 119244.000000
10666 15543 1 0.16500 119244.000000
10667 15437 1 0.16500 119244.000000
10667 15632 1 0.16500 119244.000000
10668 15439 1 0.16500 119244.000000
10668 15452 1 0.16500 119244.000000
10669 15441 1 0.16500 119244.000000
10669 15910 1 0.16500 119244.000000
10670 15441 1 0.16500 119244.000000
10670 22329 1 0.16500 119244.000000
10671 15441 1 0.16500 119244.000000
10671 22221 1 0.16500 119244.000000
10672 14915 1 0.16500 119244.000000
10672 15442 1 0.16500 119244.000000
10673 15447 1 0.16500 119244.000000
10673 15758 1 0.16500 119244.000000
10674 15448 1 0.16500 119244.000000
10674 22110 1 0.16500 119244.000000
10675 15449 1 0.16500 119244.000000
10675 15528 1 0.16500 119244.000000
10676 12085 1 0.16500 119244.000000
10676 15900 1 0.16500 119244.000000
10677 14145 1 0.16500 119244.000000
10677 15451 1 0.16500 119244.000000
10678 22053 1 0.16500 119244.000000
10678 22215 1 0.16500 119244.000000
10679 16034 1 0.16500 119244.000000
10679 22053 1 0.16500 119244.000000
10680 14666 1 0.16500 119244.000000
10680 16344 1 0.16500 119244.000000
10681 12831 1 0.16500 119244.000000
10681 15826 1 0.16500 119244.000000
10682 15455 1 0.16500 119244.000000
10682 16117 1 0.16500 119244.000000
10683 15456 1 0.16500 119244.000000
10683 15836 1 0.16500 119244.000000
10684 15457 1 0.16500 119244.000000
10684 16266 1 0.16500 119244.000000
10685 16038 1 0.16500 119244.000000
10685 22062 1 0.16500 119244.000000
10686 22062 1 0.16500 119244.000000
10686 22209 1 0.16500 119244.000000
10687 15459 1 0.16500 119244.000000
10687 15787 1 0.16500 119244.000000
10688 15460 1 0.16500 119244.000000
10688 16481 1 0.16500 119244.000000
10689 15460 1 0.16500 119244.000000
10689 16467 1 0.16500 119244.000000
10690 15460 1 0.16500 119244.000000
10690 15570 1 0.16500 119244.000000
10691 15461 1 0.16500 119244.000000
10691 16166 1 0.16500 119244.000000
10692 15462 1 0.16500 119244.000000
10692 15912 1 0.16500 119244.000000
10693 15462 1 0.16500 119244.000000
10693 16021 1 0.16500 119244.000000
10694 15898 1 0.16500 119244.000000
10694 17958 1 0.16500 119244.000000
10695 15464 1 0.16500 119244.000000
10695 16440 1 0.16500 119244.000000
10696 15465 1 0.16500 119244.000000
10696 16169 1 0.16500 119244.000000
10697 15469 1 0.16500 119244.000000
10697 15988 1 0.16500 119244.000000
10698 15004 1 0.16500 119244.000000
10698 15722 1 0.16500 119244.000000
10699 15472 1 0.16500 119244.000000
10699 16356 1 0.16500 119244.000000
10700 15472 1 0.16500 119244.000000
10700 16106 1 0.16500 119244.000000
10701 15675 1 0.16500 119244.000000
10701 17986 1 0.16500 119244.000000
10702 15475 1 0.16500 119244.000000
10702 16069 1 0.16500 119244.000000
10703 15481 1 0.16500 119244.000000
10703 16424 1 0.16500 119244.000000
10704 13485 1 0.16500 119244.000000
10704 15483 1 0.16500 119244.000000
10705 22065 1 0.16500 119244.000000
10705 22179 1 0.16500 119244.000000
10706 15485 1 0.16500 119244.000000
10706 16286 1 0.16500 119244.000000
10707 15486 1 0.16500 119244.000000
10707 16281 1 0.16500 119244.000000
10708 15486 1 0.16500 119244.000000
10708 15686 1 0.16500 119244.000000
10709 15487 1 0.16500 119244.000000
10709 16364 1 0.16500 119244.000000
10710 15489 1 0.16500 119244.000000
10710 15680 1 0.16500 119244.000000
10711 15489 1 0.16500 119244.000000
10711 22326 1 0.16500 119244.000000
10712 15491 1 0.16500 119244.000000
10712 15799 1 0.16500 119244.000000
10713 15491 1 0.16500 119244.000000
10713 16453 1 0.16500 119244.000000
10714 15493 1 0.16500 119244.000000
10714 15777 1 0.16500 119244.000000
10715 15493 1 0.16500 119244.000000
10715 15835 1 0.16500 119244.000000
10716 15495 1 0.16500 119244.000000
10716 16239 1 0.16500 119244.000000
10717 15496 1 0.16500 119244.000000
10717 16128 1 0.16500 119244.000000
10718 15497 1 0.16500 119244.000000
10718 15733 1 0.16500 119244.000000
10719 15499 1 0.16500 119244.000000
10719 16187 1 0.16500 119244.000000
10720 15500 1 0.16500 119244.000000
10720 15649 1 0.16500 119244.000000
10721 15501 1 0.16500 119244.000000
10721 16059 1 0.16500 119244.000000
10722 15506 1 0.16500 119244.000000
10722 16098 1 0.16500 119244.000000
10723 15506 1 0.16500 119244.000000
10723 15555 1 0.16500 119244.000000
10724 15510 1 0.16500 119244.000000
10724 15916 1 0.16500 119244.000000
10725 15510 1 0.16500 119244.000000
10725 15631 1 0.16500 119244.000000
10726 15512 1 0.16500 119244.000000
10726 16179 1 0.16500 119244.000000
10727 14066 1 0.16500 119244.000000
10727 15930 1 0.16500 119244.000000
10728 15513 1 0.16500 119244.000000
10728 16043 1 0.16500 119244.000000
10729 15516 1 0.16500 119244.000000
10729 15877 1 0.16500 119244.000000
10730 15518 1 0.16500 119244.000000
10730 15995 1 0.16500 119244.000000
10731 15519 1 0.16500 119244.000000
10731 15681 1 0.16500 119244.000000
10732 15520 1 0.16500 119244.000000
10732 15813 1 0.16500 119244.000000
10733 15521 1 0.16500 119244.000000
10733 16382 1 0.16500 119244.000000
10734 15521 1 0.16500 119244.000000
10734 16331 1 0.16500 119244.000000
10735 15522 1 0.16500 119244.000000
10735 15947 1 0.16500 119244.000000
10736 15892 1 0.16500 119244.000000
10736 22071 1 0.16500 119244.000000
10737 14458 1 0.16500 119244.000000
10737 15816 1 0.16500 119244.000000
10738 15523 1 0.16500 119244.000000
10738 15928 1 0.16500 119244.000000
10739 15524 1 0.16500 119244.000000
10739 15986 1 0.16500 119244.000000
10740 15527 1 0.16500 119244.000000
10740 15591 1 0.16500 119244.000000
10741 15243 1 0.16500 119244.000000
10741 15528 1 0.16500 119244.000000
10742 16422 1 0.16500 119244.000000
10742 22074 1 0.16500 119244.000000
10743 16464 1 0.16500 119244.000000
10743 22074 1 0.16500 119244.000000
10744 15879 1 0.16500 119244.000000
10744 22077 1 0.16500 119244.000000
10745 15530 1 0.16500 119244.000000
10745 16069 1 0.16500 119244.000000
10746 15530 1 0.16500 119244.000000
10746 16059 1 0.16500 119244.000000
10747 22080 1 0.16500 119244.000000
10747 22290 1 0.16500 119244.000000
10748 15531 1 0.16500 119244.000000
10748 16498 1 0.16500 119244.000000
10749 15532 1 0.16500 119244.000000
10749 15722 1 0.16500 119244.000000
10750 15533 1 0.16500 119244.000000
10750 15552 1 0.16500 119244.000000
10751 15536 1 0.16500 119244.000000
10751 16018 1 0.16500 119244.000000
10752 15539 1 0.16500 119244.000000
10752 15586 1 0.16500 119244.000000
10753 15540 1 0.16500 119244.000000
10753 15714 1 0.16500 119244.000000
10754 15540 1 0.16500 119244.000000
10754 16232 1 0.16500 119244.000000
10755 14364 1 0.16500 119244.000000
10755 15546 1 0.16500 119244.000000
10756 15991 1 0.16500 119244.000000
10756 22086 1 0.16500 119244.000000
10757 16456 1 0.16500 119244.000000
10757 22086 1 0.16500 119244.000000
10758 15969 1 0.16500 119244.000000
10758 22089 1 0.16500 119244.000000
10759 15549 1 0.16500 119244.000000
10759 22182 1 0.16500 119244.000000
10760 15551 1 0.16500 119244.000000
10760 16082 1 0.16500 119244.000000
10761 15552 1 0.16500 119244.000000
10761 16055 1 0.16500 119244.000000
10762 15553 1 0.16500 119244.000000
10762 16206 1 0.16500 119244.000000
10763 15555 1 0.16500 119244.000000
10763 15890 1 0.16500 119244.000000
10764 15559 1 0.16500 119244.000000
10764 22269 1 0.16500 119244.000000
10765 15559 1 0.16500 119244.000000
10765 15574 1 0.16500 119244.000000
10766 15559 1 0.16500 119244.000000
10766 22293 1 0.16500 119244.000000
10767 15560 1 0.16500 119244.000000
10767 15562 1 0.16500 119244.000000
10768 15561 1 0.16500 119244.000000
10768 15717 1 0.16500 119244.000000
10769 15562 1 0.16500 119244.000000
10769 15893 1 0.16500 119244.000000
10770 15564 1 0.16500 119244.000000
10770 16013 1 0.16500 119244.000000
10771 15565 1 0.16500 119244.000000
10771 15716 1 0.16500 119244.000000
10772 15566 1 0.16500 119244.000000
10772 15744 1 0.16500 119244.000000
10773 15567 1 0.16500 119244.000000
10773 15679 1 0.16500 119244.000000
10774 15568 1 0.16500 119244.000000
10774 15720 1 0.16500 119244.000000
10775 15569 1 0.16500 119244.000000
10775 15915 1 0.16500 119244.000000
10776 15570 1 0.16500 119244.000000
10776 16319 1 0.16500 119244.000000
10777 15570 1 0.16500 119244.000000
10777 16054 1 0.16500 119244.000000
10778 15572 1 0.16500 119244.000000
10778 16073 1 0.16500 119244.000000
10779 15573 1 0.16500 119244.000000
10779 15761 1 0.16500 119244.000000
10780 15573 1 0.16500 119244.000000
10780 15906 1 0.16500 119244.000000
10781 15577 1 0.16500 119244.000000
10781 16438 1 0.16500 119244.000000
10782 15580 1 0.16500 119244.000000
10782 15589 1 0.16500 119244.000000
10783 15580 1 0.16500 119244.000000
10783 15596 1 0.16500 119244.000000
10784 15583 1 0.16500 119244.000000
10784 22424 1 0.16500 119244.000000
10785 15586 1 0.16500 119244.000000
10785 15663 1 0.16500 119244.000000
10786 15586 1 0.16500 119244.000000
10786 22464 1 0.16500 119244.000000
10787 15589 1 0.16500 119244.000000
10787 15668 1 0.16500 119244.000000
10788 15594 1 0.16500 119244.000000
10788 16298 1 0.16500 119244.000000
10789 15596 1 0.16500 119244.000000
10789 16402 1 0.16500 119244.000000
10790 15597 1 0.16500 119244.000000
10790 22275 1 0.16500 119244.000000
10791 15598 1 0.16500 119244.000000
10791 16217 1 0.16500 119244.000000
10792 15599 1 0.16500 119244.000000
10792 16395 1 0.16500 119244.000000
10793 13878 1 0.16500 119244.000000
10793 15599 1 0.16500 119244.000000
10794 15600 1 0.16500 119244.000000
10794 16068 1 0.16500 119244.000000
10795 16205 1 0.16500 119244.000000
10795 18070 1 0.16500 119244.000000
10796 15601 1 0.16500 119244.000000
10796 16360 1 0.16500 119244.000000
10797 15602 1 0.16500 119244.000000
10797 15781 1 0.16500 119244.000000
10798 15602 1 0.16500 119244.000000
10798 16124 1 0.16500 119244.000000
10799 15604 1 0.16500 119244.000000
10799 16072 1 0.16500 119244.000000
10800 15607 1 0.16500 119244.000000
10800 16521 1 0.16500 119244.000000
10801 15607 1 0.16500 119244.000000
10801 15819 1 0.16500 119244.000000
10802 22104 1 0.16500 119244.000000
10802 22125 1 0.16500 119244.000000
10803 15612 1 0.16500 119244.000000
10803 16105 1 0.16500 119244.000000
10804 16485 1 0.16500 119244.000000
10804 22107 1 0.16500 119244.000000
10805 15613 1 0.16500 119244.000000
10805 16445 1 0.16500 119244.000000
10806 15615 1 0.16500 119244.000000
10806 15878 1 0.16500 119244.000000
10807 15618 1 0.16500 119244.000000
10807 16145 1 0.16500 119244.000000
10808 15619 1 0.16500 119244.000000
10808 22439 1 0.16500 119244.000000
10809 15620 1 0.16500 119244.000000
10809 16358 1 0.16500 119244.000000
10810 15620 1 0.16500 119244.000000
10810 16047 1 0.16500 119244.000000
10811 15623 1 0.16500 119244.000000
10811 15848 1 0.16500 119244.000000
10812 15625 1 0.16500 119244.000000
10812 16387 1 0.16500 119244.000000
10813 15629 1 0.16500 119244.000000
10813 22122 1 0.16500 119244.000000
10814 15791 1 0.16500 119244.000000
10814 22113 1 0.16500 119244.000000
10815 15634 1 0.16500 119244.000000
10815 18182 1 0.16500 119244.000000
10816 15635 1 0.16500 119244.000000
10816 15931 1 0.16500 119244.000000
10817 15637 1 0.16500 119244.000000
10817 16451 1 0.16500 119244.000000
10818 15637 1 0.16500 119244.000000
10818 16206 1 0.16500 119244.000000
10819 14633 1 0.16500 119244.000000
10819 15639 1 0.16500 119244.000000
10820 15641 1 0.16500 119244.000000
10820 15943 1 0.16500 119244.000000
10821 22116 1 0.16500 119244.000000
10821 22409 1 0.16500 119244.000000
10822 15206 1 0.16500 119244.000000
10822 22116 1 0.16500 119244.000000
10823 15645 1 0.16500 119244.000000
10823 16189 1 0.16500 119244.000000
10824 15645 1 0.16500 119244.000000
10824 15879 1 0.16500 119244.000000
10825 15646 1 0.16500 119244.000000
10825 15864 1 0.16500 119244.000000
10826 15647 1 0.16500 119244.000000
10826 16062 1 0.16500 119244.000000
10827 16391 1 0.16500 119244.000000
10827 22122 1 0.16500 119244.000000
10828 15724 1 0.16500 119244.000000
10828 22125 1 0.16500 119244.000000
10829 15656 1 0.16500 119244.000000
10829 18308 1 0.16500 119244.000000
10830 15659 1 0.16500 119244.000000
10830 16470 1 0.16500 119244.000000
10831 15662 1 0.16500 119244.000000
10831 16019 1 0.16500 119244.000000
10832 15663 1 0.16500 119244.000000
10832 15775 1 0.16500 119244.000000
10833 15665 1 0.16500 119244.000000
10833 16271 1 0.16500 119244.000000
10834 15667 1 0.16500 119244.000000
10834 15814 1 0.16500 119244.000000
10835 11816 1 0.16500 119244.000000
10835 15667 1 0.16500 119244.000000
10836 15669 1 0.16500 119244.000000
10836 21978 1 0.16500 119244.000000
10837 15669 1 0.16500 119244.000000
10837 16459 1 0.16500 119244.000000
10838 15670 1 0.16500 119244.000000
10838 15927 1 0.16500 119244.000000
10839 13506 1 0.16500 119244.000000
10839 15685 1 0.16500 119244.000000
10840 15672 1 0.16500 119244.000000
10840 16144 1 0.16500 119244.000000
10841 15672 1 0.16500 119244.000000
10841 22236 1 0.16500 119244.000000
10842 15673 1 0.16500 119244.000000
10842 15870 1 0.16500 119244.000000
10843 12959 1 0.16500 119244.000000
10843 15673 1 0.16500 119244.000000
10844 15676 1 0.16500 119244.000000
10844 16281 1 0.16500 119244.000000
10845 15677 1 0.16500 119244.000000
10845 16230 1 0.16500 119244.000000
10846 15677 1 0.16500 119244.000000
10846 16163 1 0.16500 119244.000000
10847 15678 1 0.16500 119244.000000
10847 16376 1 0.16500 119244.000000
10848 15680 1 0.16500 119244.000000
10848 16383 1 0.16500 119244.000000
10849 15683 1 0.16500 119244.000000
10849 16440 1 0.16500 119244.000000
10850 15688 1 0.16500 119244.000000
10850 16354 1 0.16500 119244.000000
10851 15688 1 0.16500 119244.000000
10851 16185 1 0.16500 119244.000000
10852 15692 1 0.16500 119244.000000
10852 22359 1 0.16500 119244.000000
10853 15693 1 0.16500 119244.000000
10853 16467 1 0.16500 119244.000000
10854 15694 1 0.16500 119244.000000
10854 15756 1 0.16500 119244.000000
10855 15695 1 0.16500 119244.000000
10855 15760 1 0.16500 119244.000000
10856 15697 1 0.16500 119244.000000
10856 16020 1 0.16500 119244.000000
10857 15697 1 0.16500 119244.000000
10857 15853 1 0.16500 119244.000000
10858 16134 1 0.16500 119244.000000
10858 22143 1 0.16500 119244.000000
10859 15698 1 0.16500 119244.000000
10859 15701 1 0.16500 119244.000000
10860 15699 1 0.16500 119244.000000
10860 15854 1 0.16500 119244.000000
10861 15699 1 0.16500 119244.000000
10861 16132 1 0.16500 119244.000000
10862 14101 1 0.16500 119244.000000
10862 15702 1 0.16500 119244.000000
10863 15705 1 0.16500 119244.000000
10863 15826 1 0.16500 119244.000000
10864 13557 1 0.16500 119244.000000
10864 22152 1 0.16500 119244.000000
10865 15709 1 0.16500 119244.000000
10865 15754 1 0.16500 119244.000000
10866 22149 1 0.16500 119244.000000
10866 22224 1 0.16500 119244.000000
10867 15768 1 0.16500 119244.000000
10867 22152 1 0.16500 119244.000000
10868 15752 1 0.16500 119244.000000
10868 18168 1 0.16500 119244.000000
10869 16494 1 0.16500 119244.000000
10869 18168 1 0.16500 119244.000000
10870 15712 1 0.16500 119244.000000
10870 15753 1 0.16500 119244.000000
10871 15718 1 0.16500 119244.000000
10871 16005 1 0.16500 119244.000000
10872 13659 1 0.16500 119244.000000
10872 16317 1 0.16500 119244.000000
10873 15719 1 0.16500 119244.000000
10873 16464 1 0.16500 119244.000000
10874 15719 1 0.16500 119244.000000
10874 15905 1 0.16500 119244.000000
10875 15720 1 0.16500 119244.000000
10875 15833 1 0.16500 119244.000000
10876 15721 1 0.16500 119244.000000
10876 15787 1 0.16500 119244.000000
10877 15532 1 0.16500 119244.000000
10877 16215 1 0.16500 119244.000000
10878 15726 1 0.16500 119244.000000
10878 15830 1 0.16500 119244.000000
10879 15726 1 0.16500 119244.000000
10879 16031 1 0.16500 119244.000000
10880 15727 1 0.16500 119244.000000
10880 16447 1 0.16500 119244.000000
10881 15728 1 0.16500 119244.000000
10881 16496 1 0.16500 119244.000000
10882 15731 1 0.16500 119244.000000
10882 15738 1 0.16500 119244.000000
10883 15732 1 0.16500 119244.000000
10883 16026 1 0.16500 119244.000000
10884 14109 1 0.16500 119244.000000
10884 15773 1 0.16500 119244.000000
10885 15732 1 0.16500 119244.000000
10885 16050 1 0.16500 119244.000000
10886 15733 1 0.16500 119244.000000
10886 16495 1 0.16500 119244.000000
10887 16379 1 0.16500 119244.000000
10887 21783 1 0.16500 119244.000000
10888 15739 1 0.16500 119244.000000
10888 16428 1 0.16500 119244.000000
10889 15740 1 0.16500 119244.000000
10889 15771 1 0.16500 119244.000000
10890 15741 1 0.16500 119244.000000
10890 16028 1 0.16500 119244.000000
10891 16297 1 0.16500 119244.000000
10891 22167 1 0.16500 119244.000000
10892 15743 1 0.16500 119244.000000
10892 16276 1 0.16500 119244.000000
10893 15743 1 0.16500 119244.000000
10893 16016 1 0.16500 119244.000000
10894 15743 1 0.16500 119244.000000
10894 16449 1 0.16500 119244.000000
10895 15744 1 0.16500 119244.000000
10895 16132 1 0.16500 119244.000000
10896 15747 1 0.16500 119244.000000
10896 16500 1 0.16500 119244.000000
10897 15751 1 0.16500 119244.000000
10897 16373 1 0.16500 119244.000000
10898 15753 1 0.16500 119244.000000
10898 16193 1 0.16500 119244.000000
10899 15753 1 0.16500 119244.000000
10899 16393 1 0.16500 119244.000000
10900 15754 1 0.16500 119244.000000
10900 15856 1 0.16500 119244.000000
10901 15694 1 0.16500 119244.000000
10901 16214 1 0.16500 119244.000000
10902 18546 1 0.16500 119244.000000
10902 22251 1 0.16500 119244.000000
10903 15760 1 0.16500 119244.000000
10903 15786 1 0.16500 119244.000000
10904 15762 1 0.16500 119244.000000
10904 16143 1 0.16500 119244.000000
10905 15762 1 0.16500 119244.000000
10905 15977 1 0.16500 119244.000000
10906 15763 1 0.16500 119244.000000
10906 22248 1 0.16500 119244.000000
10907 15764 1 0.16500 119244.000000
10907 16350 1 0.16500 119244.000000
10908 15765 1 0.16500 119244.000000
10908 15802 1 0.16500 119244.000000
10909 15767 1 0.16500 119244.000000
10909 16386 1 0.16500 119244.000000
10910 15767 1 0.16500 119244.000000
10910 16278 1 0.16500 119244.000000
10911 22173 1 0.16500 119244.000000
10911 22188 1 0.16500 119244.000000
10912 15768 1 0.16500 119244.000000
10912 16478 1 0.16500 119244.000000
10913 12158 1 0.16500 119244.000000
10913 16162 1 0.16500 119244.000000
10914 15771 1 0.16500 119244.000000
10914 16313 1 0.16500 119244.000000
10915 15774 1 0.16500 119244.000000
10915 15998 1 0.16500 119244.000000
10916 15775 1 0.16500 119244.000000
10916 22245 1 0.16500 119244.000000
10917 11952 1 0.16500 119244.000000
10917 15776 1 0.16500 119244.000000
10918 15779 1 0.16500 119244.000000
10918 16148 1 0.16500 119244.000000
10919 15785 1 0.16500 119244.000000
10919 15894 1 0.16500 119244.000000
10920 14384 1 0.16500 119244.000000
10920 16162 1 0.16500 119244.000000
10921 15789 1 0.16500 119244.000000
10921 16369 1 0.16500 119244.000000
10922 15789 1 0.16500 119244.000000
10922 16233 1 0.16500 119244.000000
10923 18406 1 0.16500 119244.000000
10923 22179 1 0.16500 119244.000000
10924 15794 1 0.16500 119244.000000
10924 16055 1 0.16500 119244.000000
10925 15798 1 0.16500 119244.000000
10925 15970 1 0.16500 119244.000000
10926 15801 1 0.16500 119244.000000
10926 15960 1 0.16500 119244.000000
10927 15802 1 0.16500 119244.000000
10927 15982 1 0.16500 119244.000000
10928 15803 1 0.16500 119244.000000
10928 15960 1 0.16500 119244.000000
10929 15803 1 0.16500 119244.000000
10929 16337 1 0.16500 119244.000000
10930 15804 1 0.16500 119244.000000
10930 15986 1 0.16500 119244.000000
10931 15811 1 0.16500 119244.000000
10931 16420 1 0.16500 119244.000000
10932 15815 1 0.16500 119244.000000
10932 16287 1 0.16500 119244.000000
10933 15818 1 0.16500 119244.000000
10933 16121 1 0.16500 119244.000000
10934 15821 1 0.16500 119244.000000
10934 16509 1 0.16500 119244.000000
10935 15826 1 0.16500 119244.000000
10935 16149 1 0.16500 119244.000000
10936 15835 1 0.16500 119244.000000
10936 15993 1 0.16500 119244.000000
10937 15837 1 0.16500 119244.000000
10937 16179 1 0.16500 119244.000000
10938 15838 1 0.16500 119244.000000
10938 16384 1 0.16500 119244.000000
10939 15841 1 0.16500 119244.000000
10939 16499 1 0.16500 119244.000000
10940 18294 1 0.16500 119244.000000
10940 22218 1 0.16500 119244.000000
10941 15842 1 0.16500 119244.000000
10941 16186 1 0.16500 119244.000000
10942 16280 1 0.16500 119244.000000
10942 22197 1 0.16500 119244.000000
10943 15846 1 0.16500 119244.000000
10943 16123 1 0.16500 119244.000000
10944 13938 1 0.16500 119244.000000
10944 15846 1 0.16500 119244.000000
10945 15848 1 0.16500 119244.000000
10945 22338 1 0.16500 119244.000000
10946 15849 1 0.16500 119244.000000
10946 16046 1 0.16500 119244.000000
10947 15850 1 0.16500 119244.000000
10947 16511 1 0.16500 119244.000000
10948 15851 1 0.16500 119244.000000
10948 16123 1 0.16500 119244.000000
10949 18322 1 0.16500 119244.000000
10949 22203 1 0.16500 119244.000000
10950 15972 1 0.16500 119244.000000
10950 22203 1 0.16500 119244.000000
10951 15854 1 0.16500 119244.000000
10951 15918 1 0.16500 119244.000000
10952 15854 1 0.16500 119244.000000
10952 15988 1 0.16500 119244.000000
10953 15855 1 0.16500 119244.000000
10953 16435 1 0.16500 119244.000000
10954 15858 1 0.16500 119244.000000
10954 16263 1 0.16500 119244.000000
10955 15859 1 0.16500 119244.000000
10955 15967 1 0.16500 119244.000000
10956 15861 1 0.16500 119244.000000
10956 15907 1 0.16500 119244.000000
10957 18308 1 0.16500 119244.000000
10957 22454 1 0.16500 119244.000000
10958 15869 1 0.16500 119244.000000
10958 16045 1 0.16500 119244.000000
10959 15871 1 0.16500 119244.000000
10959 16446 1 0.16500 119244.000000
10960 15871 1 0.16500 119244.000000
10960 16337 1 0.16500 119244.000000
10961 15871 1 0.16500 119244.000000
10961 16500 1 0.16500 119244.000000
10962 15872 1 0.16500 119244.000000
10962 15961 1 0.16500 119244.000000
10963 15874 1 0.16500 119244.000000
10963 16055 1 0.16500 119244.000000
10964 15896 1 0.16500 119244.000000
10964 22215 1 0.16500 119244.000000
10965 16340 1 0.16500 119244.000000
10965 22215 1 0.16500 119244.000000
10966 15875 1 0.16500 119244.000000
10966 15998 1 0.16500 119244.000000
10967 15877 1 0.16500 119244.000000
10967 16234 1 0.16500 119244.000000
10968 15878 1 0.16500 119244.000000
10968 16130 1 0.16500 119244.000000
10969 15879 1 0.16500 119244.000000
10969 15971 1 0.16500 119244.000000
10970 15880 1 0.16500 119244.000000
10970 15932 1 0.16500 119244.000000
10971 15881 1 0.16500 119244.000000
10971 16038 1 0.16500 119244.000000
10972 15882 1 0.16500 119244.000000
10972 16301 1 0.16500 119244.000000
10973 15885 1 0.16500 119244.000000
10973 16343 1 0.16500 119244.000000
10974 11879 1 0.16500 119244.000000
10974 16247 1 0.16500 119244.000000
10975 15888 1 0.16500 119244.000000
10975 16132 1 0.16500 119244.000000
10976 15891 1 0.16500 119244.000000
10976 16113 1 0.16500 119244.000000
10977 15894 1 0.16500 119244.000000
10977 15945 1 0.16500 119244.000000
10978 15894 1 0.16500 119244.000000
10978 16360 1 0.16500 119244.000000
10979 15895 1 0.16500 119244.000000
10979 16206 1 0.16500 119244.000000
10980 15983 1 0.16500 119244.000000
10980 16240 1 0.16500 119244.000000
10981 15896 1 0.16500 119244.000000
10981 16240 1 0.16500 119244.000000
10982 15897 1 0.16500 119244.000000
10982 15913 1 0.16500 119244.000000
10983 15901 1 0.16500 119244.000000
10983 16216 1 0.16500 119244.000000
10984 15901 1 0.16500 119244.000000
10984 16335 1 0.16500 119244.000000
10985 15901 1 0.16500 119244.000000
10985 16420 1 0.16500 119244.000000
10986 15902 1 0.16500 119244.000000
10986 16293 1 0.16500 119244.000000
10987 15906 1 0.16500 119244.000000
10987 16147 1 0.16500 119244.000000
10988 16464 1 0.16500 119244.000000
10988 22221 1 0.16500 119244.000000
10989 15907 1 0.16500 119244.000000
10989 16384 1 0.16500 119244.000000
10990 15911 1 0.16500 119244.000000
10990 16225 1 0.16500 119244.000000
10991 15914 1 0.16500 119244.000000
10991 16423 1 0.16500 119244.000000
10992 15925 1 0.16500 119244.000000
10992 16264 1 0.16500 119244.000000
10993 15928 1 0.16500 119244.000000
10993 16414 1 0.16500 119244.000000
10994 15930 1 0.16500 119244.000000
10994 16143 1 0.16500 119244.000000
10995 22230 1 0.16500 119244.000000
10995 22239 1 0.16500 119244.000000
10996 15940 1 0.16500 119244.000000
10996 16523 1 0.16500 119244.000000
10997 15941 1 0.16500 119244.000000
10997 16234 1 0.16500 119244.000000
10998 11774 1 0.16500 119244.000000
10998 15947 1 0.16500 119244.000000
10999 15949 1 0.16500 119244.000000
10999 16022 1 0.16500 119244.000000
11000 15949 1 0.16500 119244.000000
11000 16140 1 0.16500 119244.000000
11001 15950 1 0.16500 119244.000000
11001 16285 1 0.16500 119244.000000
11002 15950 1 0.16500 119244.000000
11002 16215 1 0.16500 119244.000000
11003 15952 1 0.16500 119244.000000
11003 16060 1 0.16500 119244.000000
11004 15952 1 0.16500 119244.000000
11004 16030 1 0.16500 119244.000000
11005 15959 1 0.16500 119244.000000
11005 16318 1 0.16500 119244.000000
11006 14188 1 0.16500 119244.000000
11006 16095 1 0.16500 119244.000000
11007 15965 1 0.16500 119244.000000
11007 16403 1 0.16500 119244.000000
11008 15965 1 0.16500 119244.000000
11008 16086 1 0.16500 119244.000000
11009 15968 1 0.16500 119244.000000
11009 16139 1 0.16500 119244.000000
11010 15975 1 0.16500 119244.000000
11010 16336 1 0.16500 119244.000000
11011 15978 1 0.16500 119244.000000
11011 16225 1 0.16500 119244.000000
11012 15981 1 0.16500 119244.000000
11012 16017 1 0.16500 119244.000000
11013 15982 1 0.16500 119244.000000
11013 16329 1 0.16500 119244.000000
11014 15983 1 0.16500 119244.000000
11014 22278 1 0.16500 119244.000000
11015 15984 1 0.16500 119244.000000
11015 16504 1 0.16500 119244.000000
11016 15985 1 0.16500 119244.000000
11016 16467 1 0.16500 119244.000000
11017 15804 1 0.16500 119244.000000
11017 16374 1 0.16500 119244.000000
11018 15987 1 0.16500 119244.000000
11018 16357 1 0.16500 119244.000000
11019 15987 1 0.16500 119244.000000
11019 16493 1 0.16500 119244.000000
11020 15995 1 0.16500 119244.000000
11020 16083 1 0.16500 119244.000000
11021 16083 1 0.16500 119244.000000
11021 16268 1 0.16500 119244.000000
11022 15016 1 0.16500 119244.000000
11022 15996 1 0.16500 119244.000000
11023 15997 1 0.16500 119244.000000
11023 16082 1 0.16500 119244.000000
11024 16003 1 0.16500 119244.000000
11024 16457 1 0.16500 119244.000000
11025 16003 1 0.16500 119244.000000
11025 16170 1 0.16500 119244.000000
11026 16004 1 0.16500 119244.000000
11026 16293 1 0.16500 119244.000000
11027 16008 1 0.16500 119244.000000
11027 16281 1 0.16500 119244.000000
11028 16010 1 0.16500 119244.000000
11028 16136 1 0.16500 119244.000000
11029 16011 1 0.16500 119244.000000
11029 22320 1 0.16500 119244.000000
11030 16011 1 0.16500 119244.000000
11030 16289 1 0.16500 119244.000000
11031 16012 1 0.16500 119244.000000
11031 16376 1 0.16500 119244.000000
11032 22242 1 0.16500 119244.000000
11032 22419 1 0.16500 119244.000000
11033 16017 1 0.16500 119244.000000
11033 16507 1 0.16500 119244.000000
11034 16025 1 0.16500 119244.000000
11034 16228 1 0.16500 119244.000000
11035 16031 1 0.16500 119244.000000
11035 16148 1 0.16500 119244.000000
11036 16033 1 0.16500 119244.000000
11036 16513 1 0.16500 119244.000000
11037 16035 1 0.16500 119244.000000
11037 16094 1 0.16500 119244.000000
11038 16037 1 0.16500 119244.000000
11038 16093 1 0.16500 119244.000000
11039 16045 1 0.16500 119244.000000
11039 16456 1 0.16500 119244.000000
11040 13117 1 0.16500 119244.000000
11040 16052 1 0.16500 119244.000000
11041 16056 1 0.16500 119244.000000
11041 16241 1 0.16500 119244.000000
11042 16056 1 0.16500 119244.000000
11042 16274 1 0.16500 119244.000000
11043 16061 1 0.16500 119244.000000
11043 16462 1 0.16500 119244.000000
11044 18434 1 0.16500 119244.000000
11044 22326 1 0.16500 119244.000000
11045 16064 1 0.16500 119244.000000
11045 16170 1 0.16500 119244.000000
11046 16067 1 0.16500 119244.000000
11046 16273 1 0.16500 119244.000000
11047 16067 1 0.16500 119244.000000
11047 16453 1 0.16500 119244.000000
11048 16069 1 0.16500 119244.000000
11048 16390 1 0.16500 119244.000000
11049 16070 1 0.16500 119244.000000
11049 22314 1 0.16500 119244.000000
11050 16072 1 0.16500 119244.000000
11050 16122 1 0.16500 119244.000000
11051 16078 1 0.16500 119244.000000
11051 16189 1 0.16500 119244.000000
11052 16084 1 0.16500 119244.000000
11052 16139 1 0.16500 119244.000000
11053 16085 1 0.16500 119244.000000
11053 16344 1 0.16500 119244.000000
11054 14618 1 0.16500 119244.000000
11054 16347 1 0.16500 119244.000000
11055 14618 1 0.16500 119244.000000
11055 16330 1 0.16500 119244.000000
11056 16089 1 0.16500 119244.000000
11056 16438 1 0.16500 119244.000000
11057 16097 1 0.16500 119244.000000
11057 16208 1 0.16500 119244.000000
11058 16099 1 0.16500 119244.000000
11058 16448 1 0.16500 119244.000000
11059 16101 1 0.16500 119244.000000
11059 16487 1 0.16500 119244.000000
11060 16102 1 0.16500 119244.000000
11060 16292 1 0.16500 119244.000000
11061 16102 1 0.16500 119244.000000
11061 16194 1 0.16500 119244.000000
11062 12134 1 0.16500 119244.000000
11062 22364 1 0.16500 119244.000000
11063 16104 1 0.16500 119244.000000
11063 16298 1 0.16500 119244.000000
11064 16109 1 0.16500 119244.000000
11064 16432 1 0.16500 119244.000000
11065 16111 1 0.16500 119244.000000
11065 16355 1 0.16500 119244.000000
11066 16113 1 0.16500 119244.000000
11066 16384 1 0.16500 119244.000000
11067 12726 1 0.16500 119244.000000
11067 16286 1 0.16500 119244.000000
11068 16116 1 0.16500 119244.000000
11068 16482 1 0.16500 119244.000000
11069 16118 1 0.16500 119244.000000
11069 16303 1 0.16500 119244.000000
11070 16119 1 0.16500 119244.000000
11070 16314 1 0.16500 119244.000000
11071 16120 1 0.16500 119244.000000
11071 16151 1 0.16500 119244.000000
11072 15978 1 0.16500 119244.000000
11072 16121 1 0.16500 119244.000000
11073 16121 1 0.16500 119244.000000
11073 16261 1 0.16500 119244.000000
11074 16126 1 0.16500 119244.000000
11074 16253 1 0.16500 119244.000000
11075 16134 1 0.16500 119244.000000
11075 22254 1 0.16500 119244.000000
11076 16133 1 0.16500 119244.000000
11076 16331 1 0.16500 119244.000000
11077 16141 1 0.16500 119244.000000
11077 16156 1 0.16500 119244.000000
11078 12044 1 0.16500 119244.000000
11078 22263 1 0.16500 119244.000000
11079 16151 1 0.16500 119244.000000
11079 16399 1 0.16500 119244.000000
11080 16151 1 0.16500 119244.000000
11080 16159 1 0.16500 119244.000000
11081 16154 1 0.16500 119244.000000
11081 22293 1 0.16500 119244.000000
11082 16158 1 0.16500 119244.000000
11082 16358 1 0.16500 119244.000000
11083 16164 1 0.16500 119244.000000
11083 16264 1 0.16500 119244.000000
11084 16172 1 0.16500 119244.000000
11084 16400 1 0.16500 119244.000000
11085 16174 1 0.16500 119244.000000
11085 16417 1 0.16500 119244.000000
11086 16178 1 0.16500 119244.000000
11086 16219 1 0.16500 119244.000000
11087 16180 1 0.16500 119244.000000
11087 16341 1 0.16500 119244.000000
11088 16185 1 0.16500 119244.000000
11088 16492 1 0.16500 119244.000000
11089 16187 1 0.16500 119244.000000
11089 16418 1 0.16500 119244.000000
11090 12744 1 0.16500 119244.000000
11090 16187 1 0.16500 119244.000000
11091 16188 1 0.16500 119244.000000
11091 16430 1 0.16500 119244.000000
11092 16287 1 0.16500 119244.000000
11092 22379 1 0.16500 119244.000000
11093 16196 1 0.16500 119244.000000
11093 16304 1 0.16500 119244.000000
11094 16210 1 0.16500 119244.000000
11094 16442 1 0.16500 119244.000000
11095 16218 1 0.16500 119244.000000
11095 16379 1 0.16500 119244.000000
11096 16223 1 0.16500 119244.000000
11096 16394 1 0.16500 119244.000000
11097 16379 1 0.16500 119244.000000
11097 22399 1 0.16500 119244.000000
11098 16236 1 0.16500 119244.000000
11098 16268 1 0.16500 119244.000000
11099 16248 1 0.16500 119244.000000
11099 16507 1 0.16500 119244.000000
11100 16249 1 0.16500 119244.000000
11100 16383 1 0.16500 119244.000000
11101 16251 1 0.16500 119244.000000
11101 16429 1 0.16500 119244.000000
11102 16251 1 0.16500 119244.000000
11102 16311 1 0.16500 119244.000000
11103 16252 1 0.16500 119244.000000
11103 16282 1 0.16500 119244.000000
11104 16253 1 0.16500 119244.000000
11104 16270 1 0.16500 119244.000000
11105 16255 1 0.16500 119244.000000
11105 16494 1 0.16500 119244.000000
11106 16256 1 0.16500 119244.000000
11106 16291 1 0.16500 119244.000000
11107 16258 1 0.16500 119244.000000
11107 16266 1 0.16500 119244.000000
11108 16265 1 0.16500 119244.000000
11108 16453 1 0.16500 119244.000000
11109 16272 1 0.16500 119244.000000
11109 16326 1 0.16500 119244.000000
11110 16274 1 0.16500 119244.000000
11110 16306 1 0.16500 119244.000000
11111 16281 1 0.16500 119244.000000
11111 16461 1 0.16500 119244.000000
11112 16286 1 0.16500 119244.000000
11112 16484 1 0.16500 119244.000000
11113 16287 1 0.16500 119244.000000
11113 16382 1 0.16500 119244.000000
11114 16288 1 0.16500 119244.000000
11114 16378 1 0.16500 119244.000000
11115 16296 1 0.16500 119244.000000
11115 16347 1 0.16500 119244.000000
11116 16466 1 0.16500 119244.000000
11116 22314 1 0.16500 119244.000000
11117 16300 1 0.16500 119244.000000
11117 16471 1 0.16500 119244.000000
11118 16305 1 0.16500 119244.000000
11118 16489 1 0.16500 119244.000000
11119 16310 1 0.16500 119244.000000
11119 16522 1 0.16500 119244.000000
11120 16311 1 0.16500 119244.000000
11120 16416 1 0.16500 119244.000000
11121 16314 1 0.16500 119244.000000
11121 16441 1 0.16500 119244.000000
11122 16330 1 0.16500 119244.000000
11122 16412 1 0.16500 119244.000000
11123 16333 1 0.16500 119244.000000
11123 16396 1 0.16500 119244.000000
11124 16346 1 0.16500 119244.000000
11124 16429 1 0.16500 119244.000000
11125 16422 1 0.16500 119244.000000
11125 22332 1 0.16500 119244.000000
11126 16366 1 0.16500 119244.000000
11126 16410 1 0.16500 119244.000000
11127 16370 1 0.16500 119244.000000
11127 16388 1 0.16500 119244.000000
11128 16372 1 0.16500 119244.000000
11128 16465 1 0.16500 119244.000000
11129 16374 1 0.16500 119244.000000
11129 16407 1 0.16500 119244.000000
11130 16381 1 0.16500 119244.000000
11130 16400 1 0.16500 119244.000000
11131 16391 1 0.16500 119244.000000
11131 16501 1 0.16500 119244.000000
11132 16402 1 0.16500 119244.000000
11132 16501 1 0.16500 119244.000000
11133 16421 1 0.16500 119244.000000
11133 16480 1 0.16500 119244.000000
11134 16432 1 0.16500 119244.000000
11134 16509 1 0.16500 119244.000000
11135 16434 1 0.16500 119244.000000
11135 16493 1 0.16500 119244.000000
11136 16463 1 0.16500 119244.000000
11136 16519 1 0.16500 119244.000000
11137 16468 1 0.16500 119244.000000
11137 22469 1 0.16500 119244.000000
11138 11359 1 0.16500 119244.000000
11138 12058 1 0.16500 119244.000000
11139 11359 1 0.16500 119244.000000
11139 11373 1 0.16500 119244.000000
11140 16319 1 0.16500 119244.000000
11140 18462 1 0.16500 119244.000000
11141 11392 1 0.16500 119244.000000
11141 15362 1 0.16500 119244.000000
11142 11407 1 0.16500 119244.000000
11142 15597 1 0.16500 119244.000000
11143 11410 1 0.16500 119244.000000
11143 12241 1 0.16500 119244.000000
11144 11447 1 0.16500 119244.000000
11144 14890 1 0.16500 119244.000000
11145 11459 1 0.16500 119244.000000
11145 16479 1 0.16500 119244.000000
11146 11462 1 0.16500 119244.000000
11146 14097 1 0.16500 119244.000000
11147 11465 1 0.16500 119244.000000
11147 15269 1 0.16500 119244.000000
11148 11469 1 0.16500 119244.000000
11148 13141 1 0.16500 119244.000000
11149 11499 1 0.16500 119244.000000
11149 12836 1 0.16500 119244.000000
11150 11537 1 0.16500 119244.000000
11150 13837 1 0.16500 119244.000000
11151 11558 1 0.16500 119244.000000
11151 13465 1 0.16500 119244.000000
11152 11569 1 0.16500 119244.000000
11152 12435 1 0.16500 119244.000000
11153 16462 1 0.16500 119244.000000
11153 18498 1 0.16500 119244.000000
11154 11493 1 0.16500 119244.000000
11154 11661 1 0.16500 119244.000000
11155 11669 1 0.16500 119244.000000
11155 14737 1 0.16500 119244.000000
11156 11707 1 0.16500 119244.000000
11156 12667 1 0.16500 119244.000000
11157 11726 1 0.16500 119244.000000
11157 12115 1 0.16500 119244.000000
11158 11735 1 0.16500 119244.000000
11158 14732 1 0.16500 119244.000000
11159 11737 1 0.16500 119244.000000
11159 13074 1 0.16500 119244.000000
11160 11743 1 0.16500 119244.000000
11160 14949 1 0.16500 119244.000000
11161 11745 1 0.16500 119244.000000
11161 14554 1 0.16500 119244.000000
11162 11469 1 0.16500 119244.000000
11162 11762 1 0.16500 119244.000000
11163 11791 1 0.16500 119244.000000
11163 15914 1 0.16500 119244.000000
11164 14663 1 0.16500 119244.000000
11164 18534 1 0.16500 119244.000000
11165 11809 1 0.16500 119244.000000
11165 14214 1 0.16500 119244.000000
11166 11817 1 0.16500 119244.000000
11166 14241 1 0.16500 119244.000000
11167 11344 1 0.16500 119244.000000
11167 18594 1 0.16500 119244.000000
11168 15991 1 0.16500 119244.000000
11168 18630 1 0.16500 119244.000000
11169 13077 1 0.16500 119244.000000
11169 18666 1 0.16500 119244.000000
11170 11582 1 0.16500 119244.000000
11170 18714 1 0.16500 119244.000000
11171 11910 1 0.16500 119244.000000
11171 15012 1 0.16500 119244.000000
11172 11745 1 0.16500 119244.000000
11172 18738 1 0.16500 119244.000000
11173 14844 1 0.16500 119244.000000
11173 18786 1 0.16500 119244.000000
11174 12880 1 0.16500 119244.000000
11174 18798 1 0.16500 119244.000000
11175 13911 1 0.16500 119244.000000
11175 18834 1 0.16500 119244.000000
11176 13716 1 0.16500 119244.000000
11176 18858 1 0.16500 119244.000000
11177 12668 1 0.16500 119244.000000
11177 18870 1 0.16500 119244.000000
11178 13356 1 0.16500 119244.000000
11178 18918 1 0.16500 119244.000000
11179 15193 1 0.16500 119244.000000
11179 18930 1 0.16500 119244.000000
11180 12125 1 0.16500 119244.000000
11180 18966 1 0.16500 119244.000000
11181 15886 1 0.16500 119244.000000
11181 19002 1 0.16500 119244.000000
11182 11743 1 0.16500 119244.000000
11182 19014 1 0.16500 119244.000000
11183 12079 1 0.16500 119244.000000
11183 12143 1 0.16500 119244.000000
11184 12104 1 0.16500 119244.000000
11184 12777 1 0.16500 119244.000000
11185 15764 1 0.16500 119244.000000
11185 19074 1 0.16500 119244.000000
11186 12159 1 0.16500 119244.000000
11186 12671 1 0.16500 119244.000000
11187 11669 1 0.16500 119244.000000
11187 19086 1 0.16500 119244.000000
11188 12709 1 0.16500 119244.000000
11188 19122 1 0.16500 119244.000000
11189 15254 1 0.16500 119244.000000
11189 19134 1 0.16500 119244.000000
11190 11817 1 0.16500 119244.000000
11190 19146 1 0.16500 119244.000000
11191 14999 1 0.16500 119244.000000
11191 19170 1 0.16500 119244.000000
11192 12027 1 0.16500 119244.000000
11192 19182 1 0.16500 119244.000000
11193 14556 1 0.16500 119244.000000
11193 19230 1 0.16500 119244.000000
11194 13921 1 0.16500 119244.000000
11194 19254 1 0.16500 119244.000000
11195 15819 1 0.16500 119244.000000
11195 19290 1 0.16500 119244.000000
11196 16409 1 0.16500 119244.000000
11196 19374 1 0.16500 119244.000000
11197 14120 1 0.16500 119244.000000
11197 19386 1 0.16500 119244.000000
11198 11373 1 0.16500 119244.000000
11198 19458 1 0.16500 119244.000000
11199 14717 1 0.16500 119244.000000
11199 19530 1 0.16500 119244.000000
11200 14820 1 0.16500 119244.000000
11200 19542 1 0.16500 119244.000000
11201 12502 1 0.16500 119244.000000
11201 15704 1 0.16500 119244.000000
11202 12529 1 0.16500 119244.000000
11202 13284 1 0.16500 119244.000000
11203 12560 1 0.16500 119244.000000
11203 14894 1 0.16500 119244.000000
11204 15965 1 0.16500 119244.000000
11204 19602 1 0.16500 119244.000000
11205 13179 1 0.16500 119244.000000
11205 19614 1 0.16500 119244.000000
11206 12263 1 0.16500 119244.000000
11206 19626 1 0.16500 119244.000000
11207 11346 1 0.16500 119244.000000
11207 12589 1 0.16500 119244.000000
11208 12227 1 0.16500 119244.000000
11208 12591 1 0.16500 119244.000000
11209 14806 1 0.16500 119244.000000
11209 19746 1 0.16500 119244.000000
11210 13306 1 0.16500 119244.000000
11210 19758 1 0.16500 119244.000000
11211 12675 1 0.16500 119244.000000
11211 13495 1 0.16500 119244.000000
11212 12031 1 0.16500 119244.000000
11212 19794 1 0.16500 119244.000000
11213 12591 1 0.16500 119244.000000
11213 12685 1 0.16500 119244.000000
11214 14529 1 0.16500 119244.000000
11214 19818 1 0.16500 119244.000000
11215 12692 1 0.16500 119244.000000
11215 15891 1 0.16500 119244.000000
11216 15292 1 0.16500 119244.000000
11216 19842 1 0.16500 119244.000000
11217 15972 1 0.16500 119244.000000
11217 19854 1 0.16500 119244.000000
11218 15062 1 0.16500 119244.000000
11218 19866 1 0.16500 119244.000000
11219 16139 1 0.16500 119244.000000
11219 19902 1 0.16500 119244.000000
11220 13511 1 0.16500 119244.000000
11220 19914 1 0.16500 119244.000000
11221 12144 1 0.16500 119244.000000
11221 19950 1 0.16500 119244.000000
11222 11358 1 0.16500 119244.000000
11222 19974 1 0.16500 119244.000000
11223 13124 1 0.16500 119244.000000
11223 19986 1 0.16500 119244.000000
11224 16263 1 0.16500 119244.000000
11224 20058 1 0.16500 119244.000000
11225 14035 1 0.16500 119244.000000
11225 20070 1 0.16500 119244.000000
11226 12805 1 0.16500 119244.000000
11226 20082 1 0.16500 119244.000000
11227 15801 1 0.16500 119244.000000
11227 20154 1 0.16500 119244.000000
11228 14855 1 0.16500 119244.000000
11228 20166 1 0.16500 119244.000000
11229 14903 1 0.16500 119244.000000
11229 20178 1 0.16500 119244.000000
11230 16060 1 0.16500 119244.000000
11230 20190 1 0.16500 119244.000000
11231 15719 1 0.16500 119244.000000
11231 20214 1 0.16500 119244.000000
11232 16444 1 0.16500 119244.000000
11232 20226 1 0.16500 119244.000000
11233 11910 1 0.16500 119244.000000
11233 20250 1 0.16500 119244.000000
11234 11462 1 0.16500 119244.000000
11234 20274 1 0.16500 119244.000000
11235 11435 1 0.16500 119244.000000
11235 12865 1 0.16500 119244.000000
11236 11342 1 0.16500 119244.000000
11236 12897 1 0.16500 119244.000000
11237 14980 1 0.16500 119244.000000
11237 20406 1 0.16500 119244.000000
11238 14136 1 0.16500 119244.000000
11238 20478 1 0.16500 119244.000000
11239 12587 1 0.16500 119244.000000
11239 20526 1 0.16500 119244.000000
11240 16306 1 0.16500 119244.000000
11240 20586 1 0.16500 119244.000000
11241 15766 1 0.16500 119244.000000
11241 20718 1 0.16500 119244.000000
11242 14417 1 0.16500 119244.000000
11242 20730 1 0.16500 119244.000000
11243 11850 1 0.16500 119244.000000
11243 20742 1 0.16500 119244.000000
11244 13455 1 0.16500 119244.000000
11244 20862 1 0.16500 119244.000000
11245 16477 1 0.16500 119244.000000
11245 20910 1 0.16500 119244.000000
11246 12156 1 0.16500 119244.000000
11246 20922 1 0.16500 119244.000000
11247 13164 1 0.16500 119244.000000
11247 20946 1 0.16500 119244.000000
11248 16247 1 0.16500 119244.000000
11248 20958 1 0.16500 119244.000000
11249 12675 1 0.16500 119244.000000
11249 21006 1 0.16500 119244.000000
11250 12463 1 0.16500 119244.000000
11250 21030 1 0.16500 119244.000000
11251 11889 1 0.16500 119244.000000
11251 21066 1 0.16500 119244.000000
11252 11691 1 0.16500 119244.000000
11252 21114 1 0.16500 119244.000000
11253 13744 1 0.16500 119244.000000
11253 21138 1 0.16500 119244.000000
11254 14466 1 0.16500 119244.000000
11254 21186 1 0.16500 119244.000000
11255 11792 1 0.16500 119244.000000
11255 13286 1 0.16500 119244.000000
11256 14239 1 0.16500 119244.000000
11256 21198 1 0.16500 119244.000000
11257 15482 1 0.16500 119244.000000
11257 21234 1 0.16500 119244.000000
11258 14751 1 0.16500 119244.000000
11258 21246 1 0.16500 119244.000000
11259 11737 1 0.16500 119244.000000
11259 21282 1 0.16500 119244.000000
11260 12685 1 0.16500 119244.000000
11260 21318 1 0.16500 119244.000000
11261 11938 1 0.16500 119244.000000
11261 21342 1 0.16500 119244.000000
11262 11459 1 0.16500 119244.000000
11262 21366 1 0.16500 119244.000000
11263 13286 1 0.16500 119244.000000
11263 13456 1 0.16500 119244.000000
11264 13456 1 0.16500 119244.000000
11264 19350 1 0.16500 119244.000000
11265 12079 1 0.16500 119244.000000
11265 21402 1 0.16500 119244.000000
11266 12324 1 0.16500 119244.000000
11266 21462 1 0.16500 119244.000000
11267 14303 1 0.16500 119244.000000
11267 21486 1 0.16500 119244.000000
11268 11426 1 0.16500 119244.000000
11268 13551 1 0.16500 119244.000000
11269 13554 1 0.16500 119244.000000
11269 14750 1 0.16500 119244.000000
11270 13554 1 0.16500 119244.000000
11270 19362 1 0.16500 119244.000000
11271 14270 1 0.16500 119244.000000
11271 21510 1 0.16500 119244.000000
11272 12560 1 0.16500 119244.000000
11272 21513 1 0.16500 119244.000000
11273 14280 1 0.16500 119244.000000
11273 21531 1 0.16500 119244.000000
11274 15791 1 0.16500 119244.000000
11274 21534 1 0.16500 119244.000000
11275 12674 1 0.16500 119244.000000
11275 21537 1 0.16500 119244.000000
11276 13879 1 0.16500 119244.000000
11276 21540 1 0.16500 119244.000000
11277 13874 1 0.16500 119244.000000
11277 21549 1 0.16500 119244.000000
11278 11618 1 0.16500 119244.000000
11278 21552 1 0.16500 119244.000000
11279 14155 1 0.16500 119244.000000
11279 21555 1 0.16500 119244.000000
11280 12159 1 0.16500 119244.000000
11280 13667 1 0.16500 119244.000000
11281 13170 1 0.16500 119244.000000
11281 21561 1 0.16500 119244.000000
11282 15250 1 0.16500 119244.000000
11282 21582 1 0.16500 119244.000000
11283 13477 1 0.16500 119244.000000
11283 21588 1 0.16500 119244.000000
11284 12701 1 0.16500 119244.000000
11284 21597 1 0.16500 119244.000000
11285 12502 1 0.16500 119244.000000
11285 21603 1 0.16500 119244.000000
11286 11349 1 0.16500 119244.000000
11286 13128 1 0.16500 119244.000000
11287 11365 1 0.16500 119244.000000
11287 13296 1 0.16500 119244.000000
11288 11374 1 0.16500 119244.000000
11288 13379 1 0.16500 119244.000000
11289 11378 1 0.16500 119244.000000
11289 12149 1 0.16500 119244.000000
11290 11392 1 0.16500 119244.000000
11290 15968 1 0.16500 119244.000000
11291 11400 1 0.16500 119244.000000
11291 15215 1 0.16500 119244.000000
11292 11403 1 0.16500 119244.000000
11292 12574 1 0.16500 119244.000000
11293 11405 1 0.16500 119244.000000
11293 14173 1 0.16500 119244.000000
11294 11406 1 0.16500 119244.000000
11294 15626 1 0.16500 119244.000000
11295 11407 1 0.16500 119244.000000
11295 13667 1 0.16500 119244.000000
11296 11410 1 0.16500 119244.000000
11296 12104 1 0.16500 119244.000000
11297 11415 1 0.16500 119244.000000
11297 13397 1 0.16500 119244.000000
11298 11418 1 0.16500 119244.000000
11298 13436 1 0.16500 119244.000000
11299 11440 1 0.16500 119244.000000
11299 12786 1 0.16500 119244.000000
11300 11447 1 0.16500 119244.000000
11300 15399 1 0.16500 119244.000000
11301 11453 1 0.16500 119244.000000
11301 12442 1 0.16500 119244.000000
11302 11465 1 0.16500 119244.000000
11302 15390 1 0.16500 119244.000000
11303 11480 1 0.16500 119244.000000
11303 12242 1 0.16500 119244.000000
11304 11481 1 0.16500 119244.000000
11304 13881 1 0.16500 119244.000000
11305 11492 1 0.16500 119244.000000
11305 15672 1 0.16500 119244.000000
11306 11499 1 0.16500 119244.000000
11306 13323 1 0.16500 119244.000000
11307 11504 1 0.16500 119244.000000
11307 12678 1 0.16500 119244.000000
11308 11509 1 0.16500 119244.000000
11308 12692 1 0.16500 119244.000000
11309 11523 1 0.16500 119244.000000
11309 13217 1 0.16500 119244.000000
11310 11536 1 0.16500 119244.000000
11310 15587 1 0.16500 119244.000000
11311 11537 1 0.16500 119244.000000
11311 14682 1 0.16500 119244.000000
11312 11553 1 0.16500 119244.000000
11312 12183 1 0.16500 119244.000000
11313 11555 1 0.16500 119244.000000
11313 12856 1 0.16500 119244.000000
11314 11557 1 0.16500 119244.000000
11314 16039 1 0.16500 119244.000000
11315 11558 1 0.16500 119244.000000
11315 12897 1 0.16500 119244.000000
11316 11568 1 0.16500 119244.000000
11316 12323 1 0.16500 119244.000000
11317 11569 1 0.16500 119244.000000
11317 15593 1 0.16500 119244.000000
11318 11605 1 0.16500 119244.000000
11318 12589 1 0.16500 119244.000000
11319 11620 1 0.16500 119244.000000
11319 16242 1 0.16500 119244.000000
11320 11623 1 0.16500 119244.000000
11320 15355 1 0.16500 119244.000000
11321 11642 1 0.16500 119244.000000
11321 12045 1 0.16500 119244.000000
11322 11661 1 0.16500 119244.000000
11322 14908 1 0.16500 119244.000000
11323 11674 1 0.16500 119244.000000
11323 12113 1 0.16500 119244.000000
11324 11678 1 0.16500 119244.000000
11324 12520 1 0.16500 119244.000000
11325 11703 1 0.16500 119244.000000
11325 13194 1 0.16500 119244.000000
11326 11707 1 0.16500 119244.000000
11326 15796 1 0.16500 119244.000000
11327 11717 1 0.16500 119244.000000
11327 14215 1 0.16500 119244.000000
11328 11719 1 0.16500 119244.000000
11328 15592 1 0.16500 119244.000000
11329 11724 1 0.16500 119244.000000
11329 12281 1 0.16500 119244.000000
11330 11726 1 0.16500 119244.000000
11330 12025 1 0.16500 119244.000000
11331 11735 1 0.16500 119244.000000
11331 12529 1 0.16500 119244.000000
11332 11739 1 0.16500 119244.000000
11332 12865 1 0.16500 119244.000000
11333 11762 1 0.16500 119244.000000
11333 13363 1 0.16500 119244.000000
11334 11787 1 0.16500 119244.000000
11334 14906 1 0.16500 119244.000000
11335 11791 1 0.16500 119244.000000
11335 16118 1 0.16500 119244.000000
11336 11801 1 0.16500 119244.000000
11336 15144 1 0.16500 119244.000000
11337 11809 1 0.16500 119244.000000
11337 13551 1 0.16500 119244.000000
11338 11812 1 0.16500 119244.000000
11338 14715 1 0.16500 119244.000000
11339 11815 1 0.16500 119244.000000
11339 16152 1 0.16500 119244.000000
11340 11820 1 0.16500 119244.000000
11340 13539 1 0.16500 119244.000000
16527 16528 1 0.10860 301825.392000
16528 16529 1 0.13986 296436.400000
16528 16537 1 0.13986 296436.400000
16529 16530 1 0.18850 35430.112000
16529 16531 1 0.13986 296436.400000
16530 16539 1 0.16500 119244.000000
16531 16532 1 0.10860 301825.392000
16531 16533 1 0.13986 296436.400000
16533 16534 1 0.10860 301825.392000
16533 16535 1 0.13986 296436.400000
16535 16536 1 0.10860 301825.392000
16535 16537 1 0.13986 296436.400000
16537 16538 1 0.10860 301825.392000
16539 16540 1 0.09450 207108.000000
16541 16542 1 0.10860 301825.392000
16542 16543 1 0.13986 296436.400000
16542 16551 1 0.13986 296436.400000
16543 16544 1 0.18850 35430.112000
16543 16545 1 0.13986 296436.400000
16544 16553 1 0.16500 119244.000000
16545 16546 1 0.10860 301825.392000
16545 16547 1 0.13986 296436.400000
16547 16548 1 0.10860 301825.392000
16547 16549 1 0.13986 296436.400000
16549 16550 1 0.10860 301825.392000
16549 16551 1 0.13986 296436.400000
16551 16552 1 0.10860 301825.392000
16553 16554 1 0.09450 207108.000000
16555 16556 1 0.10860 301825.392000
16556 16557 1 0.13986 296436.400000
16556 16565 1 0.13986 296436.400000
16557 16558 1 0.18850 35430.112000
16557 16559 1 0.13986 296436.400000
16558 16567 1 0.16500 119244.000000
16559 16560 1 0.10860 301825.392000
16559 16561 1 0.13986 296436.400000
16561 16562 1 0.10860 301825.392000
16561 16563 1 0.13986 296436.400000
16563 16564 1 0.10860 301825.392000
16563 16565 1 0.13986 296436.400000
16565 16566 1 0.10860 301825.392000
16567 16568 1 0.09450 207108.000000
16569 16570 1 0.10860 301825.392000
16570 16571 1 0.13986 296436.400000
16570 16579 1 0.13986 296436.400000
16571 16572 1 0.18850 35430.112000
16571 16573 1 0.13986 296436.400000
16572 16581 1 0.16500 119244.000000
16573 16574 1 0.10860 301825.392000
16573 16575 1 0.13986 296436.400000
16575 16576 1 0.10860 301825.392000
16575 16577 1 0.13986 296436.400000
16577 16578 1 0.10860 301825.392000
16577 16579 1 0.13986 296436.400000
16579 16580 1 0.10860 301825.392000
16581 16582 1 0.09450 207108.000000
16583 16584 1 0.10860 301825.392000
16584 16585 1 0.13986 296436.400000
16584 16593 1 0.13986 296436.400000
16585 16586 1 0.18850 35430.112000
16585 16587 1 0.13986 296436.400000
16586 16595 1 0.16500 119244.000000
16587 16588 1 0.10860 301825.392000
16587 16589 1 0.13986 296436.400000
16589 16590 1 0.10860 301825.392000
16589 16591 1 0.13986 296436.400000
16591 16592 1 0.10860 301825.392000
16591 16593 1 0.13986 296436.400000
16593 16594 1 0.10860 301825.392000
16595 16596 1 0.09450 207108.000000
16597 16598 1 0.10860 301825.392000
16598 16599 1 0.13986 296436.400000
16598 16607 1 0.13986 296436.400000
16599 16600 1 0.18850 35430.112000
16599 16601 1 0.13986 296436.400000
16600 16609 1 0.16500 119244.000000
16601 16602 1 0.10860 301825.392000
16601 16603 1 0.13986 296436.400000
16603 16604 1 0.10860 301825.392000
16603 16605 1 0.13986 296436.400000
16605 16606 1 0.10860 301825.392000
16605 16607 1 0.13986 296436.400000
16607 16608 1 0.10860 301825.392000
16609 16610 1 0.09450 207108.000000
16611 16612 1 0.10860 301825.392000
16612 16613 1 0.13986 296436.400000
16612 16621 1 0.13986 296436.400000
16613 16614 1 0.18850 35430.112000
16613 16615 1 0.13986 296436.400000
16614 16623 1 0.16500 119244.000000
16615 16616 1 0.10860 301825.392000
16615 16617 1 0.13986 296436.400000
16617 16618 1 0.10860 301825.392000
16617 16619 1 0.13986 296436.400000
16619 16620 1 0.10860 301825.392000
16619 16621 1 0.13986 296436.400000
16621 16622 1 0.10860 301825.392000
16623 16624 1 0.09450 207108.000000
16625 16626 1 0.10860 301825.392000
16626 16627 1 0.13986 296436.400000
16626 16635 1 0.13986 296436.400000
16627 16628 1 0.18850 35430.112000
16627 16629 1 0.13986 296436.400000
16628 16637 1 0.16500 119244.000000
16629 16630 1 0.10860 301825.392000
16629 16631 1 0.13986 296436.400000
16631 16632 1 0.10860 301825.392000
16631 16633 1 0.13986 296436.400000
16633 16634 1 0.10860 301825.392000
16633 16635 1 0.13986 296436.400000
16635 16636 1 0.10860 301825.392000
16637 16638 1 0.09450 207108.000000
16639 16640 1 0.10860 301825.392000
16640 16641 1 0.13986 296436.400000
16640 16649 1 0.13986 296436.400000
16641 16642 1 0.18850 35430.112000
16641 16643 1 0.13986 296436.400000
16642 16651 1 0.16500 119244.000000
16643 16644 1 0.10860 301825.392000
16643 16645 1 0.13986 296436.400000
16645 16646 1 0.10860 301825.392000
16645 16647 1 0.13986 296436.400000
16647 16648 1 0.10860 301825.392000
16647 16649 1 0.13986 296436.400000
16649 16650 1 0.10860 301825.392000
16651 16652 1 0.09450 207108.000000
16653 16654 1 0.10860 301825.392000
16654 16655 1 0.13986 296436.400000
16654 16663 1 0.13986 296436.400000
16655 16656 1 0.18850 35430.112000
16655 16657 1 0.13986 296436.400000
16656 16665 1 0.16500 119244.000000
16657 16658 1 0.10860 301825.392000
16657 16659 1 0.13986 296436.400000
16659 16660 1 0.10860 301825.392000
16659 16661 1 0.13986 296436.400000
16661 16662 1 0.10860 301825.392000
16661 16663 1 0.13986 296436.400000
16663 16664 1 0.10860 301825.392000
16665 16666 1 0.09450 207108.000000
16667 16668 1 0.10860 301825.392000
16668 16669 1 0.13986 296436.400000
16668 16677 1 0.13986 296436.400000
16669 16670 1 0.18850 35430.112000
16669 16671 1 0.13986 296436.400000
16670 16679 1 0.16500 119244.000000
16671 16672 1 0.10860 301825.392000
16671 16673 1 0.13986 296436.400000
16673 16674 1 0.10860 301825.392000
16673 16675 1 0.13986 296436.400000
16675 16676 1 0.10860 301825.392000
16675 16677 1 0.13986 296436.400000
16677 16678 1 0.10860 301825.392000
16679 16680 1 0.09450 207108.000000
16681 16682 1 0.10860 301825.392000
16682 16683 1 0.13986 296436.400000
16682 16691 1 0.13986 296436.400000
16683 16684 1 0.18850 35430.112000
16683 16685 1 0.13986 296436.400000
16684 16693 1 0.16500 119244.000000
16685 16686 1 0.10860 301825.392000
16685 16687 1 0.13986 296436.400000
16687 16688 1 0.10860 301825.392000
16687 16689 1 0.13986 296436.400000
16689 16690 1 0.10860 301825.392000
16689 16691 1 0.13986 296436.400000
16691 16692 1 0.10860 301825.392000
16693 16694 1 0.09450 207108.000000
16695 16696 1 0.10860 301825.392000
16696 16697 1 0.13986 296436.400000
16696 16705 1 0.13986 296436.400000
16697 16698 1 0.18850 35430.112000
16697 16699 1 0.13986 296436.400000
16698 16707 1 0.16500 119244.000000
16699 16700 1 0.10860 301825.392000
16699 16701 1 0.13986 296436.400000
16701 16702 1 0.10860 301825.392000
16701 16703 1 0.13986 296436.400000
16703 16704 1 0.10860 301825.392000
16703 16705 1 0.13986 296436.400000
16705 16706 1 0.10860 301825.392000
16707 16708 1 0.09450 207108.000000
16709 16710 1 0.10860 301825.392000
16710 16711 1 0.13986 296436.400000
16710 16719 1 0.13986 296436.400000
16711 16712 1 0.18850 35430.112000
16711 16713 1 0.13986 296436.400000
16712 16721 1 0.16500 119244.000000
16713 16714 1 0.10860 301825.392000
16713 16715 1 0.13986 296436.400000
16715 16716 1 0.10860 301825.392000
16715 16717 1 0.13986 296436.400000
16717 16718 1 0.10860 301825.392000
16717 16719 1 0.13986 296436.400000
16719 16720 1 0.10860 301825.392000
16721 16722 1 0.09450 207108.000000
16723 16724 1 0.10860 301825.392000
16724 16725 1 0.13986 296436.400000
16724 16733 1 0.13986 296436.400000
16725 16726 1 0.18850 35430.112000
16725 16727 1 0.13986 296436.400000
16726 16735 1 0.16500 119244.000000
16727 16728 1 0.10860 301825.392000
16727 16729 1 0.13986 296436.400000
16729 16730 1 0.10860 301825.392000
16729 16731 1 0.13986 296436.400000
16731 16732 1 0.10860 301825.392000
16731 16733 1 0.13986 296436.400000
16733 16734 1 0.10860 301825.392000
16735 16736 1 0.09450 207108.000000
16737 16738 1 0.10860 301825.392000
16738 16739 1 0.13986 296436.400000
16738 16747 1 0.13986 296436.400000
16739 16740 1 0.18850 35430.112000
16739 16741 1 0.13986 296436.400000
16740 16749 1 0.16500 119244.000000
16741 16742 1 0.10860 301825.392000
16741 16743 1 0.13986 296436.400000
16743 16744 1 0.10860 301825.392000
16743 16745 1 0.13986 296436.400000
16745 16746 1 0.10860 301825.392000
16745 16747 1 0.13986 296436.400000
16747 16748 1 0.10860 301825.392000
16749 16750 1 0.09450 207108.000000
16751 16752 1 0.10860 301825.392000
16752 16753 1 0.13986 296436.400000
16752 16761 1 0.13986 296436.400000
16753 16754 1 0.18850 35430.112000
16753 16755 1 0.13986 296436.400000
16754 16763 1 0.16500 119244.000000
16755 16756 1 0.10860 301825.392000
16755 16757 1 0.13986 296436.400000
16757 16758 1 0.10860 301825.392000
16757 16759 1 0.13986 296436.400000
16759 16760 1 0.10860 301825.392000
16759 16761 1 0.13986 296436.400000
16761 16762 1 0.10860 301825.392000
16763 16764 1 0.09450 207108.000000
16765 16766 1 0.10860 301825.392000
16766 16767 1 0.13986 296436.400000
16766 16775 1 0.13986 296436.400000
16767 16768 1 0.18850 35430.112000
16767 16769 1 0.13986 296436.400000
16768 16777 1 0.16500 119244.000000
16769 16770 1 0.10860 301825.392000
16769 16771 1 0.13986 296436.400000
16771 16772 1 0.10860 301825.392000
16771 16773 1 0.13986 296436.400000
16773 16774 1 0.10860 301825.392000
16773 16775 1 0.13986 296436.400000
16775 16776 1 0.10860 301825.392000
16777 16778 1 0.09450 207108.000000
16779 16780 1 0.10860 301825.392000
16780 16781 1 0.13986 296436.400000
16780 16789 1 0.13986 296436.400000
16781 16782 1 0.18850 35430.112000
16781 16783 1 0.13986 296436.400000
16782 16791 1 0.16500 119244.000000
16783 16784 1 0.10860 301825.392000
16783 16785 1 0.13986 296436.400000
16785 16786 1 0.10860 301825.392000
16785 16787 1 0.13986 296436.400000
16787 16788 1 0.10860 301825.392000
16787 16789 1 0.13986 296436.400000
16789 16790 1 0.10860 301825.392000
16791 16792 1 0.09450 207108.000000
16793 16794 1 0.10860 301825.392000
16794 16795 1 0.13986 296436.400000
16794 16803 1 0.13986 296436.400000
16795 16796 1 0.18850 35430.112000
16795 16797 1 0.13986 296436.400000
16796 16805 1 0.16500 119244.000000
16797 16798 1 0.10860 301825.392000
16797 16799 1 0.13986 296436.400000
16799 16800 1 0.10860 301825.392000
16799 16801 1 0.13986 296436.400000
16801 16802 1 0.10860 301825.392000
16801 16803 1 0.13986 296436.400000
16803 16804 1 0.10860 301825.392000
16805 16806 1 0.09450 207108.000000
16807 16808 1 0.10860 301825.392000
16808 16809 1 0.13986 296436.400000
16808 16817 1 0.13986 296436.400000
16809 16810 1 0.18850 35430.112000
16809 16811 1 0.13986 296436.400000
16810 16819 1 0.16500 119244.000000
16811 16812 1 0.10860 301825.392000
16811 16813 1 0.13986 296436.400000
16813 16814 1 0.10860 301825.392000
16813 16815 1 0.13986 296436.400000
16815 16816 1 0.10860 301825.392000
16815 16817 1 0.13986 296436.400000
16817 16818 1 0.10860 301825.392000
16819 16820 1 0.09450 207108.000000
16821 16822 1 0.10860 301825.392000
16822 16823 1 0.13986 296436.400000
16822 16831 1 0.13986 296436.400000
16823 16824 1 0.18850 35430.112000
16823 16825 1 0.13986 296436.400000
16824 16833 1 0.16500 119244.000000
16825 16826 1 0.10860 301825.392000
16825 16827 1 0.13986 296436.400000
16827 16828 1 0.10860 301825.392000
16827 16829 1 0.13986 296436.400000
16829 16830 1 0.10860 301825.392000
16829 16831 1 0.13986 296436.400000
16831 16832 1 0.10860 301825.392000
16833 16834 1 0.09450 207108.000000
16835 16836 1 0.10860 301825.392000
16836 16837 1 0.13986 296436.400000
16836 16845 1 0.13986 296436.400000
16837 16838 1 0.18850 35430.112000
16837 16839 1 0.13986 296436.400000
16838 16847 1 0.16500 119244.000000
16839 16840 1 0.10860 301825.392000
16839 16841 1 0.13986 296436.400000
16841 16842 1 0.10860 301825.392000
16841 16843 1 0.13986 296436.400000
16843 16844 1 0.10860 301825.392000
16843 16845 1 0.13986 296436.400000
16845 16846 1 0.10860 301825.392000
16847 16848 1 0.09450 207108.000000
16849 16850 1 0.10860 301825.392000
16850 16851 1 0.13986 296436.400000
16850 16859 1 0.13986 296436.400000
16851 16852 1 0.18850 35430.112000
16851 16853 1 0.13986 296436.400000
16852 16861 1 0.16500 119244.000000
16853 16854 1 0.10860 301825.392000
16853 16855 1 0.13986 296436.400000
16855 16856 1 0.10860 301825.392000
16855 16857 1 0.13986 296436.400000
16857 16858 1 0.10860 301825.392000
16857 16859 1 0.13986 296436.400000
16859 16860 1 0.10860 301825.392000
16861 16862 1 0.09450 207108.000000
16863 16864 1 0.10860 301825.392000
16864 16865 1 0.13986 296436.400000
16864 16873 1 0.13986 296436.400000
16865 16866 1 0.18850 35430.112000
16865 16867 1 0.13986 296436.400000
16866 16875 1 0.16500 119244.000000
16867 16868 1 0.10860 301825.392000
16867 16869 1 0.13986 296436.400000
16869 16870 1 0.10860 301825.392000
16869 16871 1 0.13986 296436.400000
16871 16872 1 0.10860 301825.392000
16871 16873 1 0.13986 296436.400000
16873 16874 1 0.10860 301825.392000
16875 16876 1 0.09450 207108.000000
16877 16878 1 0.10860 301825.392000
16878 16879 1 0.13986 296436.400000
16878 16887 1 0.13986 296436.400000
16879 16880 1 0.18850 35430.112000
16879 16881 1 0.13986 296436.400000
16880 16889 1 0.16500 119244.000000
16881 16882 1 0.10860 301825.392000
16881 16883 1 0.13986 296436.400000
16883 16884 1 0.10860 301825.392000
16883 16885 1 0.13986 296436.400000
16885 16886 1 0.10860 301825.392000
16885 16887 1 0.13986 296436.400000
16887 16888 1 0.10860 301825.392000
16889 16890 1 0.09450 207108.000000
16891 16892 1 0.10860 301825.392000
16892 16893 1 0.13986 296436.400000
16892 16901 1 0.13986 296436.400000
16893 16894 1 0.18850 35430.112000
16893 16895 1 0.13986 296436.400000
16894 16903 1 0.16500 119244.000000
16895 16896 1 0.10860 301825.392000
16895 16897 1 0.13986 296436.400000
16897 16898 1 0.10860 301825.392000
16897 16899 1 0.13986 296436.400000
16899 16900 1 0.10860 301825.392000
16899 16901 1 0.13986 296436.400000
16901 16902 1 0.10860 301825.392000
16903 16904 1 0.09450 207108.000000
16905 16906 1 0.10860 301825.392000
16906 16907 1 0.13986 296436.400000
16906 16915 1 0.13986 296436.400000
16907 16908 1 0.18850 35430.112000
16907 16909 1 0.13986 296436.400000
16908 16917 1 0.16500 119244.000000
16909 16910 1 0.10860 301825.392000
16909 16911 1 0.13986 296436.400000
16911 16912 1 0.10860 301825.392000
16911 16913 1 0.13986 296436.400000
16913 16914 1 0.10860 301825.392000
16913 16915 1 0.13986 296436.400000
16915 16916 1 0.10860 301825.392000
16917 16918 1 0.09450 207108.000000
16919 16920 1 0.10860 301825.392000
16920 16921 1 0.13986 296436.400000
16920 16929 1 0.13986 296436.400000
16921 16922 1 0.18850 35430.112000
16921 16923 1 0.13986 296436.400000
16922 16931 1 0.16500 119244.000000
16923 16924 1 0.10860 301825.392000
16923 16925 1 0.13986 296436.400000
16925 16926 1 0.10860 301825.392000
16925 16927 1 0.13986 296436.400000
16927 16928 1 0.10860 301825.392000
16927 16929 1 0.13986 296436.400000
16929 16930 1 0.10860 301825.392000
16931 16932 1 0.09450 207108.000000
16933 16934 1 0.10860 301825.392000
16934 16935 1 0.13986 296436.400000
16934 16943 1 0.13986 296436.400000
16935 16936 1 0.18850 35430.112000
16935 16937 1 0.13986 296436.400000
16936 16945 1 0.16500 119244.000000
16937 16938 1 0.10860 301825.392000
16937 16939 1 0.13986 296436.400000
16939 16940 1 0.10860 301825.392000
16939 16941 1 0.13986 296436.400000
16941 16942 1 0.10860 301825.392000
16941 16943 1 0.13986 296436.400000
16943 16944 1 0.10860 301825.392000
16945 16946 1 0.09450 207108.000000
16947 16948 1 0.10860 301825.392000
16948 16949 1 0.13986 296436.400000
16948 16957 1 0.13986 296436.400000
16949 16950 1 0.18850 35430.112000
16949 16951 1 0.13986 296436.400000
16950 16959 1 0.16500 119244.000000
16951 16952 1 0.10860 301825.392000
16951 16953 1 0.13986 296436.400000
16953 16954 1 0.10860 301825.392000
16953 16955 1 0.13986 296436.400000
16955 16956 1 0.10860 301825.392000
16955 16957 1 0.13986 296436.400000
16957 16958 1 0.10860 301825.392000
16959 16960 1 0.09450 207108.000000
16961 16962 1 0.10860 301825.392000
16962 16963 1 0.13986 296436.400000
16962 16971 1 0.13986 296436.400000
16963 16964 1 0.18850 35430.112000
16963 16965 1 0.13986 296436.400000
16964 16973 1 0.16500 119244.000000
16965 16966 1 0.10860 301825.392000
16965 16967 1 0.13986 296436.400000
16967 16968 1 0.10860 301825.392000
16967 16969 1 0.13986 296436.400000
16969 16970 1 0.10860 301825.392000
16969 16971 1 0.13986 296436.400000
16971 16972 1 0.10860 301825.392000
16973 16974 1 0.09450 207108.000000
16975 16976 1 0.10860 301825.392000
16976 16977 1 0.13986 296436.400000
16976 16985 1 0.13986 296436.400000
16977 16978 1 0.18850 35430.112000
16977 16979 1 0.13986 296436.400000
16978 16987 1 0.16500 119244.000000
16979 16980 1 0.10860 301825.392000
16979 16981 1 0.13986 296436.400000
16981 16982 1 0.10860 301825.392000
16981 16983 1 0.13986 296436.400000
16983 16984 1 0.10860 301825.392000
16983 16985 1 0.13986 296436.400000
16985 16986 1 0.10860 301825.392000
16987 16988 1 0.09450 207108.000000
16989 16990 1 0.10860 301825.392000
16990 16991 1 0.13986 296436.400000
16990 16999 1 0.13986 296436.400000
16991 16992 1 0.18850 35430.112000
16991 16993 1 0.13986 296436.400000
16992 17001 1 0.16500 119244.000000
16993 16994 1 0.10860 301825.392000
16993 16995 1 0.13986 296436.400000
16995 16996 1 0.10860 301825.392000
16995 16997 1 0.13986 296436.400000
16997 16998 1 0.10860 301825.392000
16997 16999 1 0.13986 296436.400000
16999 17000 1 0.10860 301825.392000
17001 17002 1 0.09450 207108.000000
17003 17004 1 0.10860 301825.392000
17004 17005 1 0.13986 296436.400000
17004 17013 1 0.13986 296436.400000
17005 17006 1 0.18850 35430.112000
17005 17007 1 0.13986 296436.400000
17006 17015 1 0.16500 119244.000000
17007 17008 1 0.10860 301825.392000
17007 17009 1 0.13986 296436.400000
17009 17010 1 0.10860 301825.392000
17009 17011 1 0.13986 296436.400000
17011 17012 1 0.10860 301825.392000
17011 17013 1 0.13986 296436.400000
17013 17014 1 0.10860 301825.392000
17015 17016 1 0.09450 207108.000000
17017 17018 1 0.10860 301825.392000
17018 17019 1 0.13986 296436.400000
17018 17027 1 0.13986 296436.400000
17019 17020 1 0.18850 35430.112000
17019 17021 1 0.13986 296436.400000
17020 17029 1 0.16500 119244.000000
17021 17022 1 0.10860 301825.392000
17021 17023 1 0.13986 296436.400000
17023 17024 1 0.10860 301825.392000
17023 17025 1 0.13986 296436.400000
17025 17026 1 0.10860 301825.392000
17025 17027 1 0.13986 296436.400000
17027 17028 1 0.10860 301825.392000
17029 17030 1 0.09450 207108.000000
17031 17032 1 0.10860 301825.392000
17032 17033 1 0.13986 296436.400000
17032 17041 1 0.13986 296436.400000
17033 17034 1 0.18850 35430.112000
17033 17035 1 0.13986 296436.400000
17034 17043 1 0.16500 119244.000000
17035 17036 1 0.10860 301825.392000
17035 17037 1 0.13986 296436.400000
17037 17038 1 0.10860 301825.392000
17037 17039 1 0.13986 296436.400000
17039 17040 1 0.10860 301825.392000
17039 17041 1 0.13986 296436.400000
17041 17042 1 0.10860 301825.392000
17043 17044 1 0.09450 207108.000000
17045 17046 1 0.10860 301825.392000
17046 17047 1 0.13986 296436.400000
17046 17055 1 0.13986 296436.400000
17047 17048 1 0.18850 35430.112000
17047 17049 1 0.13986 296436.400000
17048 17057 1 0.16500 119244.000000
17049 17050 1 0.10860 301825.392000
17049 17051 1 0.13986 296436.400000
17051 17052 1 0.10860 301825.392000
17051 17053 1 0.13986 296436.400000
17053 17054 1 0.10860 301825.392000
17053 17055 1 0.13986 296436.400000
17055 17056 1 0.10860 301825.392000
17057 17058 1 0.09450 207108.000000
17059 17060 1 0.10860 301825.392000
17060 17061 1 0.13986 296436.400000
17060 17069 1 0.13986 296436.400000
17061 17062 1 0.18850 35430.112000
17061 17063 1 0.13986 296436.400000
17062 17071 1 0.16500 119244.000000
17063 17064 1 0.10860 301825.392000
17063 17065 1 0.13986 296436.400000
17065 17066 1 0.10860 301825.392000
17065 17067 1 0.13986 296436.400000
17067 17068 1 0.10860 301825.392000
17067 17069 1 0.13986 296436.400000
17069 17070 1 0.10860 301825.392000
17071 17072 1 0.09450 207108.000000
17073 17074 1 0.10860 301825.392000
17074 17075 1 0.13986 296436.400000
17074 17083 1 0.13986 296436.400000
17075 17076 1 0.18850 35430.112000
17075 17077 1 0.13986 296436.400000
17076 17085 1 0.16500 119244.000000
17077 17078 1 0.10860 301825.392000
17077 17079 1 0.13986 296436.400000
17079 17080 1 0.10860 301825.392000
17079 17081 1 0.13986 296436.400000
17081 17082 1 0.10860 301825.392000
17081 17083 1 0.13986 296436.400000
17083 17084 1 0.10860 301825.392000
17085 17086 1 0.09450 207108.000000
17087 17088 1 0.10860 301825.392000
17088 17089 1 0.13986 296436.400000
17088 17097 1 0.13986 296436.400000
17089 17090 1 0.18850 35430.112000
17089 17091 1 0.13986 296436.400000
17090 17099 1 0.16500 119244.000000
17091 17092 1 0.10860 301825.392000
17091 17093 1 0.13986 296436.400000
17093 17094 1 0.10860 301825.392000
17093 17095 1 0.13986 296436.400000
17095 17096 1 0.10860 301825.392000
17095 17097 1 0.13986 296436.400000
17097 17098 1 0.10860 301825.392000
17099 17100 1 0.09450 207108.000000
17101 17102 1 0.10860 301825.392000
17102 17103 1 0.13986 296436.400000
17102 17111 1 0.13986 296436.400000
17103 17104 1 0.18850 35430.112000
17103 17105 1 0.13986 296436.400000
17104 17113 1 0.16500 119244.000000
17105 17106 1 0.10860 301825.392000
17105 17107 1 0.13986 296436.400000
17107 17108 1 0.10860 301825.392000
17107 17109 1 0.13986 296436.400000
17109 17110 1 0.10860 301825.392000
17109 17111 1 0.13986 296436.400000
17111 17112 1 0.10860 301825.392000
17113 17114 1 0.09450 207108.000000
17115 17116 1 0.10860 301825.392000
17116 17117 1 0.13986 296436.400000
17116 17125 1 0.13986 296436.400000
17117 17118 1 0.18850 35430.112000
17117 17119 1 0.13986 296436.400000
17118 17127 1 0.16500 119244.000000
17119 17120 1 0.10860 301825.392000
17119 17121 1 0.13986 296436.400000
17121 17122 1 0.10860 301825.392000
17121 17123 1 0.13986 296436.400000
17123 17124 1 0.10860 301825.392000
17123 17125 1 0.13986 296436.400000
17125 17126 1 0.10860 301825.392000
17127 17128 1 0.09450 207108.000000
17129 17130 1 0.10860 301825.392000
17130 17131 1 0.13986 296436.400000
17130 17139 1 0.13986 296436.400000
17131 17132 1 0.18850 35430.112000
17131 17133 1 0.13986 296436.400000
17132 17141 1 0.16500 119244.000000
17133 17134 1 0.10860 301825.392000
17133 17135 1 0.13986 296436.400000
17135 17136 1 0.10860 301825.392000
17135 17137 1 0.13986 296436.400000
17137 17138 1 0.10860 301825.392000
17137 17139 1 0.13986 296436.400000
17139 17140 1 0.10860 301825.392000
17141 17142 1 0.09450 207108.000000
17143 17144 1 0.10860 301825.392000
17144 17145 1 0.13986 296436.400000
17144 17153 1 0.13986 296436.400000
17145 17146 1 0.18850 35430.112000
17145 17147 1 0.13986 296436.400000
17146 17155 1 0.16500 119244.000000
17147 17148 1 0.10860 301825.392000
17147 17149 1 0.13986 296436.400000
17149 17150 1 0.10860 301825.392000
17149 17151 1 0.13986 296436.400000
17151 17152 1 0.10860 301825.392000
17151 17153 1 0.13986 296436.400000
17153 17154 1 0.10860 301825.392000
17155 17156 1 0.09450 207108.000000
17157 17158 1 0.10860 301825.392000
17158 17159 1 0.13986 296436.400000
17158 17167 1 0.13986 296436.400000
17159 17160 1 0.18850 35430.112000
17159 17161 1 0.13986 296436.400000
17160 17169 1 0.16500 119244.000000
17161 17162 1 0.10860 301825.392000
17161 17163 1 0.13986 296436.400000
17163 17164 1 0.10860 301825.392000
17163 17165 1 0.13986 296436.400000
17165 17166 1 0.10860 301825.392000
17165 17167 1 0.13986 296436.400000
17167 17168 1 0.10860 301825.392000
17169 17170 1 0.09450 207108.000000
17171 17172 1 0.10860 301825.392000
17172 17173 1 0.13986 296436.400000
17172 17181 1 0.13986 296436.400000
17173 17174 1 0.18850 35430.112000
17173 17175 1 0.13986 296436.400000
17174 17183 1 0.16500 119244.000000
17175 17176 1 0.10860 301825.392000
17175 17177 1 0.13986 296436.400000
17177 17178 1 0.10860 301825.392000
17177 17179 1 0.13986 296436.400000
17179 17180 1 0.10860 301825.392000
17179 17181 1 0.13986 296436.400000
17181 17182 1 0.10860 301825.392000
17183 17184 1 0.09450 207108.000000
17185 17186 1 0.10860 301825.392000
17186 17187 1 0.13986 296436.400000
17186 17195 1 0.13986 296436.400000
17187 17188 1 0.18850 35430.112000
17187 17189 1 0.13986 296436.400000
17188 17197 1 0.16500 119244.000000
17189 17190 1 0.10860 301825.392000
17189 17191 1 0.13986 296436.400000
17191 17192 1 0.10860 301825.392000
17191 17193 1 0.13986 296436.400000
17193 17194 1 0.10860 301825.392000
17193 17195 1 0.13986 296436.400000
17195 17196 1 0.10860 301825.392000
17197 17198 1 0.09450 207108.000000
17199 17200 1 0.10860 301825.392000
17200 17201 1 0.13986 296436.400000
17200 17209 1 0.13986 296436.400000
17201 17202 1 0.18850 35430.112000
17201 17203 1 0.13986 296436.400000
17202 17211 1 0.16500 119244.000000
17203 17204 1 0.10860 301825.392000
17203 17205 1 0.13986 296436.400000
17205 17206 1 0.10860 301825.392000
17205 17207 1 0.13986 296436.400000
17207 17208 1 0.10860 301825.392000
17207 17209 1 0.13986 296436.400000
17209 17210 1 0.10860 301825.392000
17211 17212 1 0.09450 207108.000000
17213 17214 1 0.10860 301825.392000
17214 17215 1 0.13986 296436.400000
17214 17223 1 0.13986 296436.400000
17215 17216 1 0.18850 35430.112000
17215 17217 1 0.13986 296436.400000
17216 17225 1 0.16500 119244.000000
17217 17218 1 0.10860 301825.392000
17217 17219 1 0.13986 296436.400000
17219 17220 1 0.10860 301825.392000
17219 17221 1 0.13986 296436.400000
17221 17222 1 0.10860 301825.392000
17221 17223 1 0.13986 296436.400000
17223 17224 1 0.10860 301825.392000
17225 17226 1 0.09450 207108.000000
17227 17228 1 0.10860 301825.392000
17228 17229 1 0.13986 296436.400000
17228 17237 1 0.13986 296436.400000
17229 17230 1 0.18850 35430.112000
17229 17231 1 0.13986 296436.400000
17230 17239 1 0.16500 119244.000000
17231 17232 1 0.10860 301825.392000
17231 17233 1 0.13986 296436.400000
17233 17234 1 0.10860 301825.392000
17233 17235 1 0.13986 296436.400000
17235 17236 1 0.10860 301825.392000
17235 17237 1 0.13986 296436.400000
17237 17238 1 0.10860 301825.392000
17239 17240 1 0.09450 207108.000000
17241 17242 1 0.10860 301825.392000
17242 17243 1 0.13986 296436.400000
17242 17251 1 0.13986 296436.400000
17243 17244 1 0.18850 35430.112000
17243 17245 1 0.13986 296436.400000
17244 17253 1 0.16500 119244.000000
17245 17246 1 0.10860 301825.392000
17245 17247 1 0.13986 296436.400000
17247 17248 1 0.10860 301825.392000
17247 17249 1 0.13986 296436.400000
17249 17250 1 0.10860 301825.392000
17249 17251 1 0.13986 296436.400000
17251 17252 1 0.10860 301825.392000
17253 17254 1 0.09450 207108.000000
17255 17256 1 0.10860 301825.392000
17256 17257 1 0.13986 296436.400000
17256 17265 1 0.13986 296436.400000
17257 17258 1 0.18850 35430.112000
17257 17259 1 0.13986 296436.400000
17258 17267 1 0.16500 119244.000000
17259 17260 1 0.10860 301825.392000
17259 17261 1 0.13986 296436.400000
17261 17262 1 0.10860 301825.392000
17261 17263 1 0.13986 296436.400000
17263 17264 1 0.10860 301825.392000
17263 17265 1 0.13986 296436.400000
17265 17266 1 0.10860 301825.392000
17267 17268 1 0.09450 207108.000000
17269 17270 1 0.10860 301825.392000
17270 17271 1 0.13986 296436.400000
17270 17279 1 0.13986 296436.400000
17271 17272 1 0.18850 35430.112000
17271 17273 1 0.13986 296436.400000
17272 17281 1 0.16500 119244.000000
17273 17274 1 0.10860 301825.392000
17273 17275 1 0.13986 296436.400000
17275 17276 1 0.10860 301825.392000
17275 17277 1 0.13986 296436.400000
17277 17278 1 0.10860 301825.392000
17277 17279 1 0.13986 296436.400000
17279 17280 1 0.10860 301825.392000
17281 17282 1 0.09450 207108.000000
17283 17284 1 0.10860 301825.392000
17284 17285 1 0.13986 296436.400000
17284 17293 1 0.13986 296436.400000
17285 17286 1 0.18850 35430.112000
17285 17287 1 0.13986 296436.400000
17286 17295 1 0.16500 119244.000000
17287 17288 1 0.10860 301825.392000
17287 17289 1 0.13986 296436.400000
17289 17290 1 0.10860 301825.392000
17289 17291 1 0.13986 296436.400000
17291 17292 1 0.10860 301825.392000
17291 17293 1 0.13986 296436.400000
17293 17294 1 0.10860 301825.392000
17295 17296 1 0.09450 207108.000000
17297 17298 1 0.10860 301825.392000
17298 17299 1 0.13986 296436.400000
17298 17307 1 0.13986 296436.400000
17299 17300 1 0.18850 35430.112000
17299 17301 1 0.13986 296436.400000
17300 17309 1 0.16500 119244.000000
17301 17302 1 0.10860 301825.392000
17301 17303 1 0.13986 296436.400000
17303 17304 1 0.10860 301825.392000
17303 17305 1 0.13986 296436.400000
17305 17306 1 0.10860 301825.392000
17305 17307 1 0.13986 296436.400000
17307 17308 1 0.10860 301825.392000
17309 17310 1 0.09450 207108.000000
17311 17312 1 0.10860 301825.392000
17312 17313 1 0.13986 296436.400000
17312 17321 1 0.13986 296436.400000
17313 17314 1 0.18850 35430.112000
17313 17315 1 0.13986 296436.400000
17314 17323 1 0.16500 119244.000000
17315 17316 1 0.10860 301825.392000
17315 17317 1 0.13986 296436.400000
17317 17318 1 0.10860 301825.392000
17317 17319 1 0.13986 296436.400000
17319 17320 1 0.10860 301825.392000
17319 17321 1 0.13986 296436.400000
17321 17322 1 0.10860 301825.392000
17323 17324 1 0.09450 207108.000000
17325 17326 1 0.10860 301825.392000
17326 17327 1 0.13986 296436.400000
17326 17335 1 0.13986 296436.400000
17327 17328 1 0.18850 35430.112000
17327 17329 1 0.13986 296436.400000
17328 17337 1 0.16500 119244.000000
17329 17330 1 0.10860 301825.392000
17329 17331 1 0.13986 296436.400000
17331 17332 1 0.10860 301825.392000
17331 17333 1 0.13986 296436.400000
17333 17334 1 0.10860 301825.392000
17333 17335 1 0.13986 296436.400000
17335 17336 1 0.10860 301825.392000
17337 17338 1 0.09450 207108.000000
17339 17340 1 0.10860 301825.392000
17340 17341 1 0.13986 296436.400000
17340 17349 1 0.13986 296436.400000
17341 17342 1 0.18850 35430.112000
17341 17343 1 0.13986 296436.400000
17342 17351 1 0.16500 119244.000000
17343 17344 1 0.10860 301825.392000
17343 17345 1 0.13986 296436.400000
17345 17346 1 0.10860 301825.392000
17345 17347 1 0.13986 296436.400000
17347 17348 1 0.10860 301825.392000
17347 17349 1 0.13986 296436.400000
17349 17350 1 0.10860 301825.392000
17351 17352 1 0.09450 207108.000000
17353 17354 1 0.10860 301825.392000
17354 17355 1 0.13986 296436.400000
17354 17363 1 0.13986 296436.400000
17355 17356 1 0.18850 35430.112000
17355 17357 1 0.13986 296436.400000
17356 17365 1 0.16500 119244.000000
17357 17358 1 0.10860 301825.392000
17357 17359 1 0.13986 296436.400000
17359 17360 1 0.10860 301825.392000
17359 17361 1 0.13986 296436.400000
17361 17362 1 0.10860 301825.392000
17361 17363 1 0.13986 296436.400000
17363 17364 1 0.10860 301825.392000
17365 17366 1 0.09450 207108.000000
17367 17368 1 0.10860 301825.392000
17368 17369 1 0.13986 296436.400000
17368 17377 1 0.13986 296436.400000
17369 17370 1 0.18850 35430.112000
17369 17371 1 0.13986 296436.400000
17370 17379 1 0.16500 119244.000000
17371 17372 1 0.10860 301825.392000
17371 17373 1 0.13986 296436.400000
17373 17374 1 0.10860 301825.392000
17373 17375 1 0.13986 296436.400000
17375 17376 1 0.10860 301825.392000
17375 17377 1 0.13986 296436.400000
17377 17378 1 0.10860 301825.392000
17379 17380 1 0.09450 207108.000000
17381 17382 1 0.10860 301825.392000
17382 17383 1 0.13986 296436.400000
17382 17391 1 0.13986 296436.400000
17383 17384 1 0.18850 35430.112000
17383 17385 1 0.13986 296436.400000
17384 17393 1 0.16500 119244.000000
17385 17386 1 0.10860 301825.392000
17385 17387 1 0.13986 296436.400000
17387 17388 1 0.10860 301825.392000
17387 17389 1 0.13986 296436.400000
17389 17390 1 0.10860 301825.392000
17389 17391 1 0.13986 296436.400000
17391 17392 1 0.10860 301825.392000
17393 17394 1 0.09450 207108.000000
17395 17396 1 0.10860 301825.392000
17396 17397 1 0.13986 296436.400000
17396 17405 1 0.13986 296436.400000
17397 17398 1 0.18850 35430.112000
17397 17399 1 0.13986 296436.400000
17398 17407 1 0.16500 119244.000000
17399 17400 1 0.10860 301825.392000
17399 17401 1 0.13986 296436.400000
17401 17402 1 0.10860 301825.392000
17401 17403 1 0.13986 296436.400000
17403 17404 1 0.10860 301825.392000
17403 17405 1 0.13986 296436.400000
17405 17406 1 0.10860 301825.392000
17407 17408 1 0.09450 207108.000000
17409 17410 1 0.10860 301825.392000
17410 17411 1 0.13986 296436.400000
17410 17419 1 0.13986 296436.400000
17411 17412 1 0.18850 35430.112000
17411 17413 1 0.13986 296436.400000
17412 17421 1 0.16500 119244.000000
17413 17414 1 0.10860 301825.392000
17413 17415 1 0.13986 296436.400000
17415 17416 1 0.10860 301825.392000
17415 17417 1 0.13986 296436.400000
17417 17418 1 0.10860 301825.392000
17417 17419 1 0.13986 296436.400000
17419 17420 1 0.10860 301825.392000
17421 17422 1 0.09450 207108.000000
17423 17424 1 0.10860 301825.392000
17424 17425 1 0.13986 296436.400000
17424 17433 1 0.13986 296436.400000
17425 17426 1 0.18850 35430.112000
17425 17427 1 0.13986 296436.400000
17426 17435 1 0.16500 119244.000000
17427 17428 1 0.10860 301825.392000
17427 17429 1 0.13986 296436.400000
17429 17430 1 0.10860 301825.392000
17429 17431 1 0.13986 296436.400000
17431 17432 1 0.10860 301825.392000
17431 17433 1 0.13986 296436.400000
17433 17434 1 0.10860 301825.392000
17435 17436 1 0.09450 207108.000000
17437 17438 1 0.10860 301825.392000
17438 17439 1 0.13986 296436.400000
17438 17447 1 0.13986 296436.400000
17439 17440 1 0.18850 35430.112000
17439 17441 1 0.13986 296436.400000
17440 17449 1 0.16500 119244.000000
17441 17442 1 0.10860 301825.392000
17441 17443 1 0.13986 296436.400000
17443 17444 1 0.10860 301825.392000
17443 17445 1 0.13986 296436.400000
17445 17446 1 0.10860 301825.392000
17445 17447 1 0.13986 296436.400000
17447 17448 1 0.10860 301825.392000
17449 17450 1 0.09450 207108.000000
17451 17452 1 0.10860 301825.392000
17452 17453 1 0.13986 296436.400000
17452 17461 1 0.13986 296436.400000
17453 17454 1 0.18850 35430.112000
17453 17455 1 0.13986 296436.400000
17454 17463 1 0.16500 119244.000000
17455 17456 1 0.10860 301825.392000
17455 17457 1 0.13986 296436.400000
17457 17458 1 0.10860 301825.392000
17457 17459 1 0.13986 296436.400000
17459 17460 1 0.10860 301825.392000
17459 17461 1 0.13986 296436.400000
17461 17462 1 0.10860 301825.392000
17463 17464 1 0.09450 207108.000000
17465 17466 1 0.10860 301825.392000
17466 17467 1 0.13986 296436.400000
17466 17475 1 0.13986 296436.400000
17467 17468 1 0.18850 35430.112000
17467 17469 1 0.13986 296436.400000
17468 17477 1 0.16500 119244.000000
17469 17470 1 0.10860 301825.392000
17469 17471 1 0.13986 296436.400000
17471 17472 1 0.10860 301825.392000
17471 17473 1 0.13986 296436.400000
17473 17474 1 0.10860 301825.392000
17473 17475 1 0.13986 296436.400000
17475 17476 1 0.10860 301825.392000
17477 17478 1 0.09450 207108.000000
17479 17480 1 0.10860 301825.392000
17480 17481 1 0.13986 296436.400000
17480 17489 1 0.13986 296436.400000
17481 17482 1 0.18850 35430.112000
17481 17483 1 0.13986 296436.400000
17482 17491 1 0.16500 119244.000000
17483 17484 1 0.10860 301825.392000
17483 17485 1 0.13986 296436.400000
17485 17486 1 0.10860 301825.392000
17485 17487 1 0.13986 296436.400000
17487 17488 1 0.10860 301825.392000
17487 17489 1 0.13986 296436.400000
17489 17490 1 0.10860 301825.392000
17491 17492 1 0.09450 207108.000000
17493 17494 1 0.10860 301825.392000
17494 17495 1 0.13986 296436.400000
17494 17503 1 0.13986 296436.400000
17495 17496 1 0.18850 35430.112000
17495 17497 1 0.13986 296436.400000
17496 17505 1 0.16500 119244.000000
17497 17498 1 0.10860 301825.392000
17497 17499 1 0.13986 296436.400000
17499 17500 1 0.10860 301825.392000
17499 17501 1 0.13986 296436.400000
17501 17502 1 0.10860 301825.392000
17501 17503 1 0.13986 296436.400000
17503 17504 1 0.10860 301825.392000
17505 17506 1 0.09450 207108.000000
17507 17508 1 0.10860 301825.392000
17508 17509 1 0.13986 296436.400000
17508 17517 1 0.13986 296436.400000
17509 17510 1 0.18850 35430.112000
17509 17511 1 0.13986 296436.400000
17510 17519 1 0.16500 119244.000000
17511 17512 1 0.10860 301825.392000
17511 17513 1 0.13986 296436.400000
17513 17514 1 0.10860 301825.392000
17513 17515 1 0.13986 296436.400000
17515 17516 1 0.10860 301825.392000
17515 17517 1 0.13986 296436.400000
17517 17518 1 0.10860 301825.392000
17519 17520 1 0.09450 207108.000000
17521 17522 1 0.10860 301825.392000
17522 17523 1 0.13986 296436.400000
17522 17531 1 0.13986 296436.400000
17523 17524 1 0.18850 35430.112000
17523 17525 1 0.13986 296436.400000
17524 17533 1 0.16500 119244.000000
17525 17526 1 0.10860 301825.392000
17525 17527 1 0.13986 296436.400000
17527 17528 1 0.10860 301825.392000
17527 17529 1 0.13986 296436.400000
17529 17530 1 0.10860 301825.392000
17529 17531 1 0.13986 296436.400000
17531 17532 1 0.10860 301825.392000
17533 17534 1 0.09450 207108.000000
17535 17536 1 0.10860 301825.392000
17536 17537 1 0.13986 296436.400000
17536 17545 1 0.13986 296436.400000
17537 17538 1 0.18850 35430.112000
17537 17539 1 0.13986 296436.400000
17538 17547 1 0.16500 119244.000000
17539 17540 1 0.10860 301825.392000
17539 17541 1 0.13986 296436.400000
17541 17542 1 0.10860 301825.392000
17541 17543 1 0.13986 296436.400000
17543 17544 1 0.10860 301825.392000
17543 17545 1 0.13986 296436.400000
17545 17546 1 0.10860 301825.392000
17547 17548 1 0.09450 207108.000000
17549 17550 1 0.10860 301825.392000
17550 17551 1 0.13986 296436.400000
17550 17559 1 0.13986 296436.400000
17551 17552 1 0.18850 35430.112000
17551 17553 1 0.13986 296436.400000
17552 17561 1 0.16500 119244.000000
17553 17554 1 0.10860 301825.392000
17553 17555 1 0.13986 296436.400000
17555 17556 1 0.10860 301825.392000
17555 17557 1 0.13986 296436.400000
17557 17558 1 0.10860 301825.392000
17557 17559 1 0.13986 296436.400000
17559 17560 1 0.10860 301825.392000
17561 17562 1 0.09450 207108.000000
17563 17564 1 0.10860 301825.392000
17564 17565 1 0.13986 296436.400000
17564 17573 1 0.13986 296436.400000
17565 17566 1 0.18850 35430.112000
17565 17567 1 0.13986 296436.400000
17566 17575 1 0.16500 119244.000000
17567 17568 1 0.10860 301825.392000
17567 17569 1 0.13986 296436.400000
17569 17570 1 0.10860 301825.392000
17569 17571 1 0.13986 296436.400000
17571 17572 1 0.10860 301825.392000
17571 17573 1 0.13986 296436.400000
17573 17574 1 0.10860 301825.392000
17575 17576 1 0.09450 207108.000000
17577 17578 1 0.10860 301825.392000
17578 17579 1 0.13986 296436.400000
17578 17587 1 0.13986 296436.400000
17579 17580 1 0.18850 35430.112000
17579 17581 1 0.13986 296436.400000
17580 17589 1 0.16500 119244.000000
17581 17582 1 0.10860 301825.392000
17581 17583 1 0.13986 296436.400000
17583 17584 1 0.10860 301825.392000
17583 17585 1 0.13986 296436.400000
17585 17586 1 0.10860 301825.392000
17585 17587 1 0.13986 296436.400000
17587 17588 1 0.10860 301825.392000
17589 17590 1 0.09450 207108.000000
17591 17592 1 0.10860 301825.392000
17592 17593 1 0.13986 296436.400000
17592 17601 1 0.13986 296436.400000
17593 17594 1 0.18850 35430.112000
17593 17595 1 0.13986 296436.400000
17594 17603 1 0.16500 119244.000000
17595 17596 1 0.10860 301825.392000
17595 17597 1 0.13986 296436.400000
17597 17598 1 0.10860 301825.392000
17597 17599 1 0.13986 296436.400000
17599 17600 1 0.10860 301825.392000
17599 17601 1 0.13986 296436.400000
17601 17602 1 0.10860 301825.392000
17603 17604 1 0.09450 207108.000000
17605 17606 1 0.10860 301825.392000
17606 17607 1 0.13986 296436.400000
17606 17615 1 0.13986 296436.400000
17607 17608 1 0.18850 35430.112000
17607 17609 1 0.13986 296436.400000
17608 17617 1 0.16500 119244.000000
17609 17610 1 0.10860 301825.392000
17609 17611 1 0.13986 296436.400000
17611 17612 1 0.10860 301825.392000
17611 17613 1 0.13986 296436.400000
17613 17614 1 0.10860 301825.392000
17613 17615 1 0.13986 296436.400000
17615 17616 1 0.10860 301825.392000
17617 17618 1 0.09450 207108.000000
17619 17620 1 0.10860 301825.392000
17620 17621 1 0.13986 296436.400000
17620 17629 1 0.13986 296436.400000
17621 17622 1 0.18850 35430.112000
17621 17623 1 0.13986 296436.400000
17622 17631 1 0.16500 119244.000000
17623 17624 1 0.10860 301825.392000
17623 17625 1 0.13986 296436.400000
17625 17626 1 0.10860 301825.392000
17625 17627 1 0.13986 296436.400000
17627 17628 1 0.10860 301825.392000
17627 17629 1 0.13986 296436.400000
17629 17630 1 0.10860 301825.392000
17631 17632 1 0.09450 207108.000000
17633 17634 1 0.10860 301825.392000
17634 17635 1 0.13986 296436.400000
17634 17643 1 0.13986 296436.400000
17635 17636 1 0.18850 35430.112000
17635 17637 1 0.13986 296436.400000
17636 17645 1 0.16500 119244.000000
17637 17638 1 0.10860 301825.392000
17637 17639 1 0.13986 296436.400000
17639 17640 1 0.10860 301825.392000
17639 17641 1 0.13986 296436.400000
17641 17642 1 0.10860 301825.392000
17641 17643 1 0.13986 296436.400000
17643 17644 1 0.10860 301825.392000
17645 17646 1 0.09450 207108.000000
17647 17648 1 0.10860 301825.392000
17648 17649 1 0.13986 296436.400000
17648 17657 1 0.13986 296436.400000
17649 17650 1 0.18850 35430.112000
17649 17651 1 0.13986 296436.400000
17650 17659 1 0.16500 119244.000000
17651 17652 1 0.10860 301825.392000
17651 17653 1 0.13986 296436.400000
17653 17654 1 0.10860 301825.392000
17653 17655 1 0.13986 296436.400000
17655 17656 1 0.10860 301825.392000
17655 17657 1 0.13986 296436.400000
17657 17658 1 0.10860 301825.392000
17659 17660 1 0.09450 207108.000000
17661 17662 1 0.10860 301825.392000
17662 17663 1 0.13986 296436.400000
17662 17671 1 0.13986 296436.400000
17663 17664 1 0.18850 35430.112000
17663 17665 1 0.13986 296436.400000
17664 17673 1 0.16500 119244.000000
17665 17666 1 0.10860 301825.392000
17665 17667 1 0.13986 296436.400000
17667 17668 1 0.10860 301825.392000
17667 17669 1 0.13986 296436.400000
17669 17670 1 0.10860 301825.392000
17669 17671 1 0.13986 296436.400000
17671 17672 1 0.10860 301825.392000
17673 17674 1 0.09450 207108.000000
17675 17676 1 0.10860 301825.392000
17676 17677 1 0.13986 296436.400000
17676 17685 1 0.13986 296436.400000
17677 17678 1 0.18850 35430.112000
17677 17679 1 0.13986 296436.400000
17678 17687 1 0.16500 119244.000000
17679 17680 1 0.10860 301825.392000
17679 17681 1 0.13986 296436.400000
17681 17682 1 0.10860 301825.392000
17681 17683 1 0.13986 296436.400000
17683 17684 1 0.10860 301825.392000
17683 17685 1 0.13986 296436.400000
17685 17686 1 0.10860 301825.392000
17687 17688 1 0.09450 207108.000000
17689 17690 1 0.10860 301825.392000
17690 17691 1 0.13986 296436.400000
17690 17699 1 0.13986 296436.400000
17691 17692 1 0.18850 35430.112000
17691 17693 1 0.13986 296436.400000
17692 17701 1 0.16500 119244.000000
17693 17694 1 0.10860 301825.392000
17693 17695 1 0.13986 296436.400000
17695 17696 1 0.10860 301825.392000
17695 17697 1 0.13986 296436.400000
17697 17698 1 0.10860 301825.392000
17697 17699 1 0.13986 296436.400000
17699 17700 1 0.10860 301825.392000
17701 17702 1 0.09450 207108.000000
17703 17704 1 0.10860 301825.392000
17704 17705 1 0.13986 296436.400000
17704 17713 1 0.13986 296436.400000
17705 17706 1 0.18850 35430.112000
17705 17707 1 0.13986 296436.400000
17706 17715 1 0.16500 119244.000000
17707 17708 1 0.10860 301825.392000
17707 17709 1 0.13986 296436.400000
17709 17710 1 0.10860 301825.392000
17709 17711 1 0.13986 296436.400000
17711 17712 1 0.10860 301825.392000
17711 17713 1 0.13986 296436.400000
17713 17714 1 0.10860 301825.392000
17715 17716 1 0.09450 207108.000000
17717 17718 1 0.10860 301825.392000
17718 17719 1 0.13986 296436.400000
17718 17727 1 0.13986 296436.400000
17719 17720 1 0.18850 35430.112000
17719 17721 1 0.13986 296436.400000
17720 17729 1 0.16500 119244.000000
17721 17722 1 0.10860 301825.392000
17721 17723 1 0.13986 296436.400000
17723 17724 1 0.10860 301825.392000
17723 17725 1 0.13986 296436.400000
17725 17726 1 0.10860 301825.392000
17725 17727 1 0.13986 296436.400000
17727 17728 1 0.10860 301825.392000
17729 17730 1 0.09450 207108.000000
17731 17732 1 0.10860 301825.392000
17732 17733 1 0.13986 296436.400000
17732 17741 1 0.13986 296436.400000
17733 17734 1 0.18850 35430.112000
17733 17735 1 0.13986 296436.400000
17734 17743 1 0.16500 119244.000000
17735 17736 1 0.10860 301825.392000
17735 17737 1 0.13986 296436.400000
17737 17738 1 0.10860 301825.392000
17737 17739 1 0.13986 296436.400000
17739 17740 1 0.10860 301825.392000
17739 17741 1 0.13986 296436.400000
17741 17742 1 0.10860 301825.392000
17743 17744 1 0.09450 207108.000000
17745 17746 1 0.10860 301825.392000
17746 17747 1 0.13986 296436.400000
17746 17755 1 0.13986 296436.400000
17747 17748 1 0.18850 35430.112000
17747 17749 1 0.13986 296436.400000
17748 17757 1 0.16500 119244.000000
17749 17750 1 0.10860 301825.392000
17749 17751 1 0.13986 296436.400000
17751 17752 1 0.10860 301825.392000
17751 17753 1 0.13986 296436.400000
17753 17754 1 0.10860 301825.392000
17753 17755 1 0.13986 296436.400000
17755 17756 1 0.10860 301825.392000
17757 17758 1 0.09450 207108.000000
17759 17760 1 0.10860 301825.392000
17760 17761 1 0.13986 296436.400000
17760 17769 1 0.13986 296436.400000
17761 17762 1 0.18850 35430.112000
17761 17763 1 0.13986 296436.400000
17762 17771 1 0.16500 119244.000000
17763 17764 1 0.10860 301825.392000
17763 17765 1 0.13986 296436.400000
17765 17766 1 0.10860 301825.392000
17765 17767 1 0.13986 296436.400000
17767 17768 1 0.10860 301825.392000
17767 17769 1 0.13986 296436.400000
17769 17770 1 0.10860 301825.392000
17771 17772 1 0.09450 207108.000000
17773 17774 1 0.10860 301825.392000
17774 17775 1 0.13986 296436.400000
17774 17783 1 0.13986 296436.400000
17775 17776 1 0.18850 35430.112000
17775 17777 1 0.13986 296436.400000
17776 17785 1 0.16500 119244.000000
17777 17778 1 0.10860 301825.392000
17777 17779 1 0.13986 296436.400000
17779 17780 1 0.10860 301825.392000
17779 17781 1 0.13986 296436.400000
17781 17782 1 0.10860 301825.392000
17781 17783 1 0.13986 296436.400000
17783 17784 1 0.10860 301825.392000
17785 17786 1 0.09450 207108.000000
17787 17788 1 0.10860 301825.392000
17788 17789 1 0.13986 296436.400000
17788 17797 1 0.13986 296436.400000
17789 17790 1 0.18850 35430.112000
17789 17791 1 0.13986 296436.400000
17790 17799 1 0.16500 119244.000000
17791 17792 1 0.10860 301825.392000
17791 17793 1 0.13986 296436.400000
17793 17794 1 0.10860 301825.392000
17793 17795 1 0.13986 296436.400000
17795 17796 1 0.10860 301825.392000
17795 17797 1 0.13986 296436.400000
17797 17798 1 0.10860 301825.392000
17799 17800 1 0.09450 207108.000000
17801 17802 1 0.10860 301825.392000
17802 17803 1 0.13986 296436.400000
17802 17811 1 0.13986 296436.400000
17803 17804 1 0.18850 35430.112000
17803 17805 1 0.13986 296436.400000
17804 17813 1 0.16500 119244.000000
17805 17806 1 0.10860 301825.392000
17805 17807 1 0.13986 296436.400000
17807 17808 1 0.10860 301825.392000
17807 17809 1 0.13986 296436.400000
17809 17810 1 0.10860 301825.392000
17809 17811 1 0.13986 296436.400000
17811 17812 1 0.10860 301825.392000
17813 17814 1 0.09450 207108.000000
17815 17816 1 0.10860 301825.392000
17816 17817 1 0.13986 296436.400000
17816 17825 1 0.13986 296436.400000
17817 17818 1 0.18850 35430.112000
17817 17819 1 0.13986 296436.400000
17818 17827 1 0.16500 119244.000000
17819 17820 1 0.10860 301825.392000
17819 17821 1 0.13986 296436.400000
17821 17822 1 0.10860 301825.392000
17821 17823 1 0.13986 296436.400000
17823 17824 1 0.10860 301825.392000
17823 17825 1 0.13986 296436.400000
17825 17826 1 0.10860 301825.392000
17827 17828 1 0.09450 207108.000000
17829 17830 1 0.10860 301825.392000
17830 17831 1 0.13986 296436.400000
17830 17839 1 0.13986 296436.400000
17831 17832 1 0.18850 35430.112000
17831 17833 1 0.13986 296436.400000
17832 17841 1 0.16500 119244.000000
17833 17834 1 0.10860 301825.392000
17833 17835 1 0.13986 296436.400000
17835 17836 1 0.10860 301825.392000
17835 17837 1 0.13986 296436.400000
17837 17838 1 0.10860 301825.392000
17837 17839 1 0.13986 296436.400000
17839 17840 1 0.10860 301825.392000
17841 17842 1 0.09450 207108.000000
17843 17844 1 0.10860 301825.392000
17844 17845 1 0.13986 296436.400000
17844 17853 1 0.13986 296436.400000
17845 17846 1 0.18850 35430.112000
17845 17847 1 0.13986 296436.400000
17846 17855 1 0.16500 119244.000000
17847 17848 1 0.10860 301825.392000
17847 17849 1 0.13986 296436.400000
17849 17850 1 0.10860 301825.392000
17849 17851 1 0.13986 296436.400000
17851 17852 1 0.10860 301825.392000
17851 17853 1 0.13986 296436.400000
17853 17854 1 0.10860 301825.392000
17855 17856 1 0.09450 207108.000000
17857 17858 1 0.10860 301825.392000
17858 17859 1 0.13986 296436.400000
17858 17867 1 0.13986 296436.400000
17859 17860 1 0.18850 35430.112000
17859 17861 1 0.13986 296436.400000
17860 17869 1 0.16500 119244.000000
17861 17862 1 0.10860 301825.392000
17861 17863 1 0.13986 296436.400000
17863 17864 1 0.10860 301825.392000
17863 17865 1 0.13986 296436.400000
17865 17866 1 0.10860 301825.392000
17865 17867 1 0.13986 296436.400000
17867 17868 1 0.10860 301825.392000
17869 17870 1 0.09450 207108.000000
17871 17872 1 0.10860 301825.392000
17872 17873 1 0.13986 296436.400000
17872 17881 1 0.13986 296436.400000
17873 17874 1 0.18850 35430.112000
17873 17875 1 0.13986 296436.400000
17874 17883 1 0.16500 119244.000000
17875 17876 1 0.10860 301825.392000
17875 17877 1 0.13986 296436.400000
17877 17878 1 0.10860 301825.392000
17877 17879 1 0.13986 296436.400000
17879 17880 1 0.10860 301825.392000
17879 17881 1 0.13986 296436.400000
17881 17882 1 0.10860 301825.392000
17883 17884 1 0.09450 207108.000000
17885 17886 1 0.10860 301825.392000
17886 17887 1 0.13986 296436.400000
17886 17895 1 0.13986 296436.400000
17887 17888 1 0.18850 35430.112000
17887 17889 1 0.13986 296436.400000
17888 17897 1 0.16500 119244.000000
17889 17890 1 0.10860 301825.392000
17889 17891 1 0.13986 296436.400000
17891 17892 1 0.10860 301825.392000
17891 17893 1 0.13986 296436.400000
17893 17894 1 0.10860 301825.392000
17893 17895 1 0.13986 296436.400000
17895 17896 1 0.10860 301825.392000
17897 17898 1 0.09450 207108.000000
17899 17900 1 0.10860 301825.392000
17900 17901 1 0.13986 296436.400000
17900 17909 1 0.13986 296436.400000
17901 17902 1 0.18850 35430.112000
17901 17903 1 0.13986 296436.400000
17902 17911 1 0.16500 119244.000000
17903 17904 1 0.10860 301825.392000
17903 17905 1 0.13986 296436.400000
17905 17906 1 0.10860 301825.392000
17905 17907 1 0.13986 296436.400000
17907 17908 1 0.10860 301825.392000
17907 17909 1 0.13986 296436.400000
17909 17910 1 0.10860 301825.392000
17911 17912 1 0.09450 207108.000000
17913 17914 1 0.10860 301825.392000
17914 17915 1 0.13986 296436.400000
17914 17923 1 0.13986 296436.400000
17915 17916 1 0.18850 35430.112000
17915 17917 1 0.13986 296436.400000
17916 17925 1 0.16500 119244.000000
17917 17918 1 0.10860 301825.392000
17917 17919 1 0.13986 296436.400000
17919 17920 1 0.10860 301825.392000
17919 17921 1 0.13986 296436.400000
17921 17922 1 0.10860 301825.392000
17921 17923 1 0.13986 296436.400000
17923 17924 1 0.10860 301825.392000
17925 17926 1 0.09450 207108.000000
17927 17928 1 0.10860 301825.392000
17928 17929 1 0.13986 296436.400000
17928 17937 1 0.13986 296436.400000
17929 17930 1 0.18850 35430.112000
17929 17931 1 0.13986 296436.400000
17930 17939 1 0.16500 119244.000000
17931 17932 1 0.10860 301825.392000
17931 17933 1 0.13986 296436.400000
17933 17934 1 0.10860 301825.392000
17933 17935 1 0.13986 296436.400000
17935 17936 1 0.10860 301825.392000
17935 17937 1 0.13986 296436.400000
17937 17938 1 0.10860 301825.392000
17939 17940 1 0.09450 207108.000000
17941 17942 1 0.10860 301825.392000
17942 17943 1 0.13986 296436.400000
17942 17951 1 0.13986 296436.400000
17943 17944 1 0.18850 35430.112000
17943 17945 1 0.13986 296436.400000
17944 17953 1 0.16500 119244.000000
17945 17946 1 0.10860 301825.392000
17945 17947 1 0.13986 296436.400000
17947 17948 1 0.10860 301825.392000
17947 17949 1 0.13986 296436.400000
17949 17950 1 0.10860 301825.392000
17949 17951 1 0.13986 296436.400000
17951 17952 1 0.10860 301825.392000
17953 17954 1 0.09450 207108.000000
17955 17956 1 0.10860 301825.392000
17956 17957 1 0.13986 296436.400000
17956 17965 1 0.13986 296436.400000
17957 17958 1 0.18850 35430.112000
17957 17959 1 0.13986 296436.400000
17958 17967 1 0.16500 119244.000000
17959 17960 1 0.10860 301825.392000
17959 17961 1 0.13986 296436.400000
17961 17962 1 0.10860 301825.392000
17961 17963 1 0.13986 296436.400000
17963 17964 1 0.10860 301825.392000
17963 17965 1 0.13986 296436.400000
17965 17966 1 0.10860 301825.392000
17967 17968 1 0.09450 207108.000000
17969 17970 1 0.10860 301825.392000
17970 17971 1 0.13986 296436.400000
17970 17979 1 0.13986 296436.400000
17971 17972 1 0.18850 35430.112000
17971 17973 1 0.13986 296436.400000
17972 17981 1 0.16500 119244.000000
17973 17974 1 0.10860 301825.392000
17973 17975 1 0.13986 296436.400000
17975 17976 1 0.10860 301825.392000
17975 17977 1 0.13986 296436.400000
17977 17978 1 0.10860 301825.392000
17977 17979 1 0.13986 296436.400000
17979 17980 1 0.10860 301825.392000
17981 17982 1 0.09450 207108.000000
17983 17984 1 0.10860 301825.392000
17984 17985 1 0.13986 296436.400000
17984 17993 1 0.13986 296436.400000
17985 17986 1 0.18850 35430.112000
17985 17987 1 0.13986 296436.400000
17986 17995 1 0.16500 119244.000000
17987 17988 1 0.10860 301825.392000
17987 17989 1 0.13986 296436.400000
17989 17990 1 0.10860 301825.392000
17989 17991 1 0.13986 296436.400000
17991 17992 1 0.10860 301825.392000
17991 17993 1 0.13986 296436.400000
17993 17994 1 0.10860 301825.392000
17995 17996 1 0.09450 207108.000000
17997 17998 1 0.10860 301825.392000
17998 17999 1 0.13986 296436.400000
17998 18007 1 0.13986 296436.400000
17999 18000 1 0.18850 35430.112000
17999 18001 1 0.13986 296436.400000
18000 18009 1 0.16500 119244.000000
18001 18002 1 0.10860 301825.392000
18001 18003 1 0.13986 296436.400000
18003 18004 1 0.10860 301825.392000
18003 18005 1 0.13986 296436.400000
18005 18006 1 0.10860 301825.392000
18005 18007 1 0.13986 296436.400000
18007 18008 1 0.10860 301825.392000
18009 18010 1 0.09450 207108.000000
18011 18012 1 0.10860 301825.392000
18012 18013 1 0.13986 296436.400000
18012 18021 1 0.13986 296436.400000
18013 18014 1 0.18850 35430.112000
18013 18015 1 0.13986 296436.400000
18014 18023 1 0.16500 119244.000000
18015 18016 1 0.10860 301825.392000
18015 18017 1 0.13986 296436.400000
18017 18018 1 0.10860 301825.392000
18017 18019 1 0.13986 296436.400000
18019 18020 1 0.10860 301825.392000
18019 18021 1 0.13986 296436.400000
18021 18022 1 0.10860 301825.392000
18023 18024 1 0.09450 207108.000000
18025 18026 1 0.10860 301825.392000
18026 18027 1 0.13986 296436.400000
18026 18035 1 0.13986 296436.400000
18027 18028 1 0.18850 35430.112000
18027 18029 1 0.13986 296436.400000
18028 18037 1 0.16500 119244.000000
18029 18030 1 0.10860 301825.392000
18029 18031 1 0.13986 296436.400000
18031 18032 1 0.10860 301825.392000
18031 18033 1 0.13986 296436.400000
18033 18034 1 0.10860 301825.392000
18033 18035 1 0.13986 296436.400000
18035 18036 1 0.10860 301825.392000
18037 18038 1 0.09450 207108.000000
18039 18040 1 0.10860 301825.392000
18040 18041 1 0.13986 296436.400000
18040 18049 1 0.13986 296436.400000
18041 18042 1 0.18850 35430.112000
18041 18043 1 0.13986 296436.400000
18042 18051 1 0.16500 119244.000000
18043 18044 1 0.10860 301825.392000
18043 18045 1 0.13986 296436.400000
18045 18046 1 0.10860 301825.392000
18045 18047 1 0.13986 296436.400000
18047 18048 1 0.10860 301825.392000
18047 18049 1 0.13986 296436.400000
18049 18050 1 0.10860 301825.392000
18051 18052 1 0.09450 207108.000000
18053 18054 1 0.10860 301825.392000
18054 18055 1 0.13986 296436.400000
18054 18063 1 0.13986 296436.400000
18055 18056 1 0.18850 35430.112000
18055 18057 1 0.13986 296436.400000
18056 18065 1 0.16500 119244.000000
18057 18058 1 0.10860 301825.392000
18057 18059 1 0.13986 296436.400000
18059 18060 1 0.10860 301825.392000
18059 18061 1 0.13986 296436.400000
18061 18062 1 0.10860 301825.392000
18061 18063 1 0.13986 296436.400000
18063 18064 1 0.10860 301825.392000
18065 18066 1 0.09450 207108.000000
18067 18068 1 0.10860 301825.392000
18068 18069 1 0.13986 296436.400000
18068 18077 1 0.13986 296436.400000
18069 18070 1 0.18850 35430.112000
18069 18071 1 0.13986 296436.400000
18070 18079 1 0.16500 119244.000000
18071 18072 1 0.10860 301825.392000
18071 18073 1 0.13986 296436.400000
18073 18074 1 0.10860 301825.392000
18073 18075 1 0.13986 296436.400000
18075 18076 1 0.10860 301825.392000
18075 18077 1 0.13986 296436.400000
18077 18078 1 0.10860 301825.392000
18079 18080 1 0.09450 207108.000000
18081 18082 1 0.10860 301825.392000
18082 18083 1 0.13986 296436.400000
18082 18091 1 0.13986 296436.400000
18083 18084 1 0.18850 35430.112000
18083 18085 1 0.13986 296436.400000
18084 18093 1 0.16500 119244.000000
18085 18086 1 0.10860 301825.392000
18085 18087 1 0.13986 296436.400000
18087 18088 1 0.10860 301825.392000
18087 18089 1 0.13986 296436.400000
18089 18090 1 0.10860 301825.392000
18089 18091 1 0.13986 296436.400000
18091 18092 1 0.10860 301825.392000
18093 18094 1 0.09450 207108.000000
18095 18096 1 0.10860 301825.392000
18096 18097 1 0.13986 296436.400000
18096 18105 1 0.13986 296436.400000
18097 18098 1 0.18850 35430.112000
18097 18099 1 0.13986 296436.400000
18098 18107 1 0.16500 119244.000000
18099 18100 1 0.10860 301825.392000
18099 18101 1 0.13986 296436.400000
18101 18102 1 0.10860 301825.392000
18101 18103 1 0.13986 296436.400000
18103 18104 1 0.10860 301825.392000
18103 18105 1 0.13986 296436.400000
18105 18106 1 0.10860 301825.392000
18107 18108 1 0.09450 207108.000000
18109 18110 1 0.10860 301825.392000
18110 18111 1 0.13986 296436.400000
18110 18119 1 0.13986 296436.400000
18111 18112 1 0.18850 35430.112000
18111 18113 1 0.13986 296436.400000
18112 18121 1 0.16500 119244.000000
18113 18114 1 0.10860 301825.392000
18113 18115 1 0.13986 296436.400000
18115 18116 1 0.10860 301825.392000
18115 18117 1 0.13986 296436.400000
18117 18118 1 0.10860 301825.392000
18117 18119 1 0.13986 296436.400000
18119 18120 1 0.10860 301825.392000
18121 18122 1 0.09450 207108.000000
18123 18124 1 0.10860 301825.392000
18124 18125 1 0.13986 296436.400000
18124 18133 1 0.13986 296436.400000
18125 18126 1 0.18850 35430.112000
18125 18127 1 0.13986 296436.400000
18126 18135 1 0.16500 119244.000000
18127 18128 1 0.10860 301825.392000
18127 18129 1 0.13986 296436.400000
18129 18130 1 0.10860 301825.392000
18129 18131 1 0.13986 296436.400000
18131 18132 1 0.10860 301825.392000
18131 18133 1 0.13986 296436.400000
18133 18134 1 0.10860 301825.392000
18135 18136 1 0.09450 207108.000000
18137 18138 1 0.10860 301825.392000
18138 18139 1 0.13986 296436.400000
18138 18147 1 0.13986 296436.400000
18139 18140 1 0.18850 35430.112000
18139 18141 1 0.13986 296436.400000
18140 18149 1 0.16500 119244.000000
18141 18142 1 0.10860 301825.392000
18141 18143 1 0.13986 296436.400000
18143 18144 1 0.10860 301825.392000
18143 18145 1 0.13986 296436.400000
18145 18146 1 0.10860 301825.392000
18145 18147 1 0.13986 296436.400000
18147 18148 1 0.10860 301825.392000
18149 18150 1 0.09450 207108.000000
18151 18152 1 0.10860 301825.392000
18152 18153 1 0.13986 296436.400000
18152 18161 1 0.13986 296436.400000
18153 18154 1 0.18850 35430.112000
18153 18155 1 0.13986 296436.400000
18154 18163 1 0.16500 119244.000000
18155 18156 1 0.10860 301825.392000
18155 18157 1 0.13986 296436.400000
18157 18158 1 0.10860 301825.392000
18157 18159 1 0.13986 296436.400000
18159 18160 1 0.10860 301825.392000
18159 18161 1 0.13986 296436.400000
18161 18162 1 0.10860 301825.392000
18163 18164 1 0.09450 207108.000000
18165 18166 1 0.10860 301825.392000
18166 18167 1 0.13986 296436.400000
18166 18175 1 0.13986 296436.400000
18167 18168 1 0.18850 35430.112000
18167 18169 1 0.13986 296436.400000
18168 18177 1 0.16500 119244.000000
18169 18170 1 0.10860 301825.392000
18169 18171 1 0.13986 296436.400000
18171 18172 1 0.10860 301825.392000
18171 18173 1 0.13986 296436.400000
18173 18174 1 0.10860 301825.392000
18173 18175 1 0.13986 296436.400000
18175 18176 1 0.10860 301825.392000
18177 18178 1 0.09450 207108.000000
18179 18180 1 0.10860 301825.392000
18180 18181 1 0.13986 296436.400000
18180 18189 1 0.13986 296436.400000
18181 18182 1 0.18850 35430.112000
18181 18183 1 0.13986 296436.400000
18182 18191 1 0.16500 119244.000000
18183 18184 1 0.10860 301825.392000
18183 18185 1 0.13986 296436.400000
18185 18186 1 0.10860 301825.392000
18185 18187 1 0.13986 296436.400000
18187 18188 1 0.10860 301825.392000
18187 18189 1 0.13986 296436.400000
18189 18190 1 0.10860 301825.392000
18191 18192 1 0.09450 207108.000000
18193 18194 1 0.10860 301825.392000
18194 18195 1 0.13986 296436.400000
18194 18203 1 0.13986 296436.400000
18195 18196 1 0.18850 35430.112000
18195 18197 1 0.13986 296436.400000
18196 18205 1 0.16500 119244.000000
18197 18198 1 0.10860 301825.392000
18197 18199 1 0.13986 296436.400000
18199 18200 1 0.10860 301825.392000
18199 18201 1 0.13986 296436.400000
18201 18202 1 0.10860 301825.392000
18201 18203 1 0.13986 296436.400000
18203 18204 1 0.10860 301825.392000
18205 18206 1 0.09450 207108.000000
18207 18208 1 0.10860 301825.392000
18208 18209 1 0.13986 296436.400000
18208 18217 1 0.13986 296436.400000
18209 18210 1 0.18850 35430.112000
18209 18211 1 0.13986 296436.400000
18210 18219 1 0.16500 119244.000000
18211 18212 1 0.10860 301825.392000
18211 18213 1 0.13986 296436.400000
18213 18214 1 0.10860 301825.392000
18213 18215 1 0.13986 296436.400000
18215 18216 1 0.10860 301825.392000
18215 18217 1 0.13986 296436.400000
18217 18218 1 0.10860 301825.392000
18219 18220 1 0.09450 207108.000000
18221 18222 1 0.10860 301825.392000
18222 18223 1 0.13986 296436.400000
18222 18231 1 0.13986 296436.400000
18223 18224 1 0.18850 35430.112000
18223 18225 1 0.13986 296436.400000
18224 18233 1 0.16500 119244.000000
18225 18226 1 0.10860 301825.392000
18225 18227 1 0.13986 296436.400000
18227 18228 1 0.10860 301825.392000
18227 18229 1 0.13986 296436.400000
18229 18230 1 0.10860 301825.392000
18229 18231 1 0.13986 296436.400000
18231 18232 1 0.10860 301825.392000
18233 18234 1 0.09450 207108.000000
18235 18236 1 0.10860 301825.392000
18236 18237 1 0.13986 296436.400000
18236 18245 1 0.13986 296436.400000
18237 18238 1 0.18850 35430.112000
18237 18239 1 0.13986 296436.400000
18238 18247 1 0.16500 119244.000000
18239 18240 1 0.10860 301825.392000
18239 18241 1 0.13986 296436.400000
18241 18242 1 0.10860 301825.392000
18241 18243 1 0.13986 296436.400000
18243 18244 1 0.10860 301825.392000
18243 18245 1 0.13986 296436.400000
18245 18246 1 0.10860 301825.392000
18247 18248 1 0.09450 207108.000000
18249 18250 1 0.10860 301825.392000
18250 18251 1 0.13986 296436.400000
18250 18259 1 0.13986 296436.400000
18251 18252 1 0.18850 35430.112000
18251 18253 1 0.13986 296436.400000
18252 18261 1 0.16500 119244.000000
18253 18254 1 0.10860 301825.392000
18253 18255 1 0.13986 296436.400000
18255 18256 1 0.10860 301825.392000
18255 18257 1 0.13986 296436.400000
18257 18258 1 0.10860 301825.392000
18257 18259 1 0.13986 296436.400000
18259 18260 1 0.10860 301825.392000
18261 18262 1 0.09450 207108.000000
18263 18264 1 0.10860 301825.392000
18264 18265 1 0.13986 296436.400000
18264 18273 1 0.13986 296436.400000
18265 18266 1 0.18850 35430.112000
18265 18267 1 0.13986 296436.400000
18266 18275 1 0.16500 119244.000000
18267 18268 1 0.10860 301825.392000
18267 18269 1 0.13986 296436.400000
18269 18270 1 0.10860 301825.392000
18269 18271 1 0.13986 296436.400000
18271 18272 1 0.10860 301825.392000
18271 18273 1 0.13986 296436.400000
18273 18274 1 0.10860 301825.392000
18275 18276 1 0.09450 207108.000000
18277 18278 1 0.10860 301825.392000
18278 18279 1 0.13986 296436.400000
18278 18287 1 0.13986 296436.400000
18279 18280 1 0.18850 35430.112000
18279 18281 1 0.13986 296436.400000
18280 18289 1 0.16500 119244.000000
18281 18282 1 0.10860 301825.392000
18281 18283 1 0.13986 296436.400000
18283 18284 1 0.10860 301825.392000
18283 18285 1 0.13986 296436.400000
18285 18286 1 0.10860 301825.392000
18285 18287 1 0.13986 296436.400000
18287 18288 1 0.10860 301825.392000
18289 18290 1 0.09450 207108.000000
18291 18292 1 0.10860 301825.392000
18292 18293 1 0.13986 296436.400000
18292 18301 1 0.13986 296436.400000
18293 18294 1 0.18850 35430.112000
18293 18295 1 0.13986 296436.400000
18294 18303 1 0.16500 119244.000000
18295 18296 1 0.10860 301825.392000
18295 18297 1 0.13986 296436.400000
18297 18298 1 0.10860 301825.392000
18297 18299 1 0.13986 296436.400000
18299 18300 1 0.10860 301825.392000
18299 18301 1 0.13986 296436.400000
18301 18302 1 0.10860 301825.392000
18303 18304 1 0.09450 207108.000000
18305 18306 1 0.10860 301825.392000
18306 18307 1 0.13986 296436.400000
18306 18315 1 0.13986 296436.400000
18307 18308 1 0.18850 35430.112000
18307 18309 1 0.13986 296436.400000
18308 18317 1 0.16500 119244.000000
18309 18310 1 0.10860 301825.392000
18309 18311 1 0.13986 296436.400000
18311 18312 1 0.10860 301825.392000
18311 18313 1 0.13986 296436.400000
18313 18314 1 0.10860 301825.392000
18313 18315 1 0.13986 296436.400000
18315 18316 1 0.10860 301825.392000
18317 18318 1 0.09450 207108.000000
18319 18320 1 0.10860 301825.392000
18320 18321 1 0.13986 296436.400000
18320 18329 1 0.13986 296436.400000
18321 18322 1 0.18850 35430.112000
18321 18323 1 0.13986 296436.400000
18322 18331 1 0.16500 119244.000000
18323 18324 1 0.10860 301825.392000
18323 18325 1 0.13986 296436.400000
18325 18326 1 0.10860 301825.392000
18325 18327 1 0.13986 296436.400000
18327 18328 1 0.10860 301825.392000
18327 18329 1 0.13986 296436.400000
18329 18330 1 0.10860 301825.392000
18331 18332 1 0.09450 207108.000000
18333 18334 1 0.10860 301825.392000
18334 18335 1 0.13986 296436.400000
18334 18343 1 0.13986 296436.400000
18335 18336 1 0.18850 35430.112000
18335 18337 1 0.13986 296436.400000
18336 18345 1 0.16500 119244.000000
18337 18338 1 0.10860 301825.392000
18337 18339 1 0.13986 296436.400000
18339 18340 1 0.10860 301825.392000
18339 18341 1 0.13986 296436.400000
18341 18342 1 0.10860 301825.392000
18341 18343 1 0.13986 296436.400000
18343 18344 1 0.10860 301825.392000
18345 18346 1 0.09450 207108.000000
18347 18348 1 0.10860 301825.392000
18348 18349 1 0.13986 296436.400000
18348 18357 1 0.13986 296436.400000
18349 18350 1 0.18850 35430.112000
18349 18351 1 0.13986 296436.400000
18350 18359 1 0.16500 119244.000000
18351 18352 1 0.10860 301825.392000
18351 18353 1 0.13986 296436.400000
18353 18354 1 0.10860 301825.392000
18353 18355 1 0.13986 296436.400000
18355 18356 1 0.10860 301825.392000
18355 18357 1 0.13986 296436.400000
18357 18358 1 0.10860 301825.392000
18359 18360 1 0.09450 207108.000000
18361 18362 1 0.10860 301825.392000
18362 18363 1 0.13986 296436.400000
18362 18371 1 0.13986 296436.400000
18363 18364 1 0.18850 35430.112000
18363 18365 1 0.13986 296436.400000
18364 18373 1 0.16500 119244.000000
18365 18366 1 0.10860 301825.392000
18365 18367 1 0.13986 296436.400000
18367 18368 1 0.10860 301825.392000
18367 18369 1 0.13986 296436.400000
18369 18370 1 0.10860 301825.392000
18369 18371 1 0.13986 296436.400000
18371 18372 1 0.10860 301825.392000
18373 18374 1 0.09450 207108.000000
18375 18376 1 0.10860 301825.392000
18376 18377 1 0.13986 296436.400000
18376 18385 1 0.13986 296436.400000
18377 18378 1 0.18850 35430.112000
18377 18379 1 0.13986 296436.400000
18378 18387 1 0.16500 119244.000000
18379 18380 1 0.10860 301825.392000
18379 18381 1 0.13986 296436.400000
18381 18382 1 0.10860 301825.392000
18381 18383 1 0.13986 296436.400000
18383 18384 1 0.10860 301825.392000
18383 18385 1 0.13986 296436.400000
18385 18386 1 0.10860 301825.392000
18387 18388 1 0.09450 207108.000000
18389 18390 1 0.10860 301825.392000
18390 18391 1 0.13986 296436.400000
18390 18399 1 0.13986 296436.400000
18391 18392 1 0.18850 35430.112000
18391 18393 1 0.13986 296436.400000
18392 18401 1 0.16500 119244.000000
18393 18394 1 0.10860 301825.392000
18393 18395 1 0.13986 296436.400000
18395 18396 1 0.10860 301825.392000
18395 18397 1 0.13986 296436.400000
18397 18398 1 0.10860 301825.392000
18397 18399 1 0.13986 296436.400000
18399 18400 1 0.10860 301825.392000
18401 18402 1 0.09450 207108.000000
18403 18404 1 0.10860 301825.392000
18404 18405 1 0.13986 296436.400000
18404 18413 1 0.13986 296436.400000
18405 18406 1 0.18850 35430.112000
18405 18407 1 0.13986 296436.400000
18406 18415 1 0.16500 119244.000000
18407 18408 1 0.10860 301825.392000
18407 18409 1 0.13986 296436.400000
18409 18410 1 0.10860 301825.392000
18409 18411 1 0.13986 296436.400000
18411 18412 1 0.10860 301825.392000
18411 18413 1 0.13986 296436.400000
18413 18414 1 0.10860 301825.392000
18415 18416 1 0.09450 207108.000000
18417 18418 1 0.10860 301825.392000
18418 18419 1 0.13986 296436.400000
18418 18427 1 0.13986 296436.400000
18419 18420 1 0.18850 35430.112000
18419 18421 1 0.13986 296436.400000
18420 18429 1 0.16500 119244.000000
18421 18422 1 0.10860 301825.392000
18421 18423 1 0.13986 296436.400000
18423 18424 1 0.10860 301825.392000
18423 18425 1 0.13986 296436.400000
18425 18426 1 0.10860 301825.392000
18425 18427 1 0.13986 296436.400000
18427 18428 1 0.10860 301825.392000
18429 18430 1 0.09450 207108.000000
18431 18432 1 0.10860 301825.392000
18432 18433 1 0.13986 296436.400000
18432 18441 1 0.13986 296436.400000
18433 18434 1 0.18850 35430.112000
18433 18435 1 0.13986 296436.400000
18434 18443 1 0.16500 119244.000000
18435 18436 1 0.10860 301825.392000
18435 18437 1 0.13986 296436.400000
18437 18438 1 0.10860 301825.392000
18437 18439 1 0.13986 296436.400000
18439 18440 1 0.10860 301825.392000
18439 18441 1 0.13986 296436.400000
18441 18442 1 0.10860 301825.392000
18443 18444 1 0.09450 207108.000000
18445 18446 1 0.10860 301825.392000
18446 18447 1 0.13986 296436.400000
18446 18455 1 0.13986 296436.400000
18447 18448 1 0.18850 35430.112000
18447 18449 1 0.13986 296436.400000
18448 18457 1 0.16500 119244.000000
18449 18450 1 0.10860 301825.392000
18449 18451 1 0.13986 296436.400000
18451 18452 1 0.10860 301825.392000
18451 18453 1 0.13986 296436.400000
18453 18454 1 0.10860 301825.392000
18453 18455 1 0.13986 296436.400000
18455 18456 1 0.10860 301825.392000
18457 18458 1 0.09450 207108.000000
18459 18460 1 0.10860 301825.392000
18460 18461 1 0.13986 296436.400000
18460 18469 1 0.13986 296436.400000
18461 18462 1 0.18850 35430.112000
18461 18463 1 0.13986 296436.400000
18463 18464 1 0.10860 301825.392000
18463 18465 1 0.13986 296436.400000
18465 18466 1 0.10860 301825.392000
18465 18467 1 0.13986 296436.400000
18467 18468 1 0.10860 301825.392000
18467 18469 1 0.13986 296436.400000
18469 18470 1 0.10860 301825.392000
18471 18472 1 0.10860 301825.392000
18472 18473 1 0.13986 296436.400000
18472 18481 1 0.13986 296436.400000
18473 18474 1 0.18850 35430.112000
18473 18475 1 0.13986 296436.400000
18475 18476 1 0.10860 301825.392000
18475 18477 1 0.13986 296436.400000
18477 18478 1 0.10860 301825.392000
18477 18479 1 0.13986 296436.400000
18479 18480 1 0.10860 301825.392000
18479 18481 1 0.13986 296436.400000
18481 18482 1 0.10860 301825.392000
18483 18484 1 0.10860 301825.392000
18484 18485 1 0.13986 296436.400000
18484 18493 1 0.13986 296436.400000
18485 18486 1 0.18850 35430.112000
18485 18487 1 0.13986 296436.400000
18487 18488 1 0.10860 301825.392000
18487 18489 1 0.13986 296436.400000
18489 18490 1 0.10860 301825.392000
18489 18491 1 0.13986 296436.400000
18491 18492 1 0.10860 301825.392000
18491 18493 1 0.13986 296436.400000
18493 18494 1 0.10860 301825.392000
18495 18496 1 0.10860 301825.392000
18496 18497 1 0.13986 296436.400000
18496 18505 1 0.13986 296436.400000
18497 18498 1 0.18850 35430.112000
18497 18499 1 0.13986 296436.400000
18499 18500 1 0.10860 301825.392000
18499 18501 1 0.13986 296436.400000
18501 18502 1 0.10860 301825.392000
18501 18503 1 0.13986 296436.400000
18503 18504 1 0.10860 301825.392000
18503 18505 1 0.13986 296436.400000
18505 18506 1 0.10860 301825.392000
18507 18508 1 0.10860 301825.392000
18508 18509 1 0.13986 296436.400000
18508 18517 1 0.13986 296436.400000
18509 18510 1 0.18850 35430.112000
18509 18511 1 0.13986 296436.400000
18511 18512 1 0.10860 301825.392000
18511 18513 1 0.13986 296436.400000
18513 18514 1 0.10860 301825.392000
18513 18515 1 0.13986 296436.400000
18515 18516 1 0.10860 301825.392000
18515 18517 1 0.13986 296436.400000
18517 18518 1 0.10860 301825.392000
18519 18520 1 0.10860 301825.392000
18520 18521 1 0.13986 296436.400000
18520 18529 1 0.13986 296436.400000
18521 18522 1 0.18850 35430.112000
18521 18523 1 0.13986 296436.400000
18523 18524 1 0.10860 301825.392000
18523 18525 1 0.13986 296436.400000
18525 18526 1 0.10860 301825.392000
18525 18527 1 0.13986 296436.400000
18527 18528 1 0.10860 301825.392000
18527 18529 1 0.13986 296436.400000
18529 18530 1 0.10860 301825.392000
18531 18532 1 0.10860 301825.392000
18532 18533 1 0.13986 296436.400000
18532 18541 1 0.13986 296436.400000
18533 18534 1 0.18850 35430.112000
18533 18535 1 0.13986 296436.400000
18535 18536 1 0.10860 301825.392000
18535 18537 1 0.13986 296436.400000
18537 18538 1 0.10860 301825.392000
18537 18539 1 0.13986 296436.400000
18539 18540 1 0.10860 301825.392000
18539 18541 1 0.13986 296436.400000
18541 18542 1 0.10860 301825.392000
18543 18544 1 0.10860 301825.392000
18544 18545 1 0.13986 296436.400000
18544 18553 1 0.13986 296436.400000
18545 18546 1 0.18850 35430.112000
18545 18547 1 0.13986 296436.400000
18547 18548 1 0.10860 301825.392000
18547 18549 1 0.13986 296436.400000
18549 18550 1 0.10860 301825.392000
18549 18551 1 0.13986 296436.400000
18551 18552 1 0.10860 301825.392000
18551 18553 1 0.13986 296436.400000
18553 18554 1 0.10860 301825.392000
18555 18556 1 0.10860 301825.392000
18556 18557 1 0.13986 296436.400000
18556 18565 1 0.13986 296436.400000
18557 18558 1 0.18850 35430.112000
18557 18559 1 0.13986 296436.400000
18559 18560 1 0.10860 301825.392000
18559 18561 1 0.13986 296436.400000
18561 18562 1 0.10860 301825.392000
18561 18563 1 0.13986 296436.400000
18563 18564 1 0.10860 301825.392000
18563 18565 1 0.13986 296436.400000
18565 18566 1 0.10860 301825.392000
18567 18568 1 0.10860 301825.392000
18568 18569 1 0.13986 296436.400000
18568 18577 1 0.13986 296436.400000
18569 18570 1 0.18850 35430.112000
18569 18571 1 0.13986 296436.400000
18571 18572 1 0.10860 301825.392000
18571 18573 1 0.13986 296436.400000
18573 18574 1 0.10860 301825.392000
18573 18575 1 0.13986 296436.400000
18575 18576 1 0.10860 301825.392000
18575 18577 1 0.13986 296436.400000
18577 18578 1 0.10860 301825.392000
18579 18580 1 0.10860 301825.392000
18580 18581 1 0.13986 296436.400000
18580 18589 1 0.13986 296436.400000
18581 18582 1 0.18850 35430.112000
18581 18583 1 0.13986 296436.400000
18583 18584 1 0.10860 301825.392000
18583 18585 1 0.13986 296436.400000
18585 18586 1 0.10860 301825.392000
18585 18587 1 0.13986 296436.400000
18587 18588 1 0.10860 301825.392000
18587 18589 1 0.13986 296436.400000
18589 18590 1 0.10860 301825.392000
18591 18592 1 0.10860 301825.392000
18592 18593 1 0.13986 296436.400000
18592 18601 1 0.13986 296436.400000
18593 18594 1 0.18850 35430.112000
18593 18595 1 0.13986 296436.400000
18595 18596 1 0.10860 301825.392000
18595 18597 1 0.13986 296436.400000
18597 18598 1 0.10860 301825.392000
18597 18599 1 0.13986 296436.400000
18599 18600 1 0.10860 301825.392000
18599 18601 1 0.13986 296436.400000
18601 18602 1 0.10860 301825.392000
18603 18604 1 0.10860 301825.392000
18604 18605 1 0.13986 296436.400000
18604 18613 1 0.13986 296436.400000
18605 18606 1 0.18850 35430.112000
18605 18607 1 0.13986 296436.400000
18607 18608 1 0.10860 301825.392000
18607 18609 1 0.13986 296436.400000
18609 18610 1 0.10860 301825.392000
18609 18611 1 0.13986 296436.400000
18611 18612 1 0.10860 301825.392000
18611 18613 1 0.13986 296436.400000
18613 18614 1 0.10860 301825.392000
18615 18616 1 0.10860 301825.392000
18616 18617 1 0.13986 296436.400000
18616 18625 1 0.13986 296436.400000
18617 18618 1 0.18850 35430.112000
18617 18619 1 0.13986 296436.400000
18619 18620 1 0.10860 301825.392000
18619 18621 1 0.13986 296436.400000
18621 18622 1 0.10860 301825.392000
18621 18623 1 0.13986 296436.400000
18623 18624 1 0.10860 301825.392000
18623 18625 1 0.13986 296436.400000
18625 18626 1 0.10860 301825.392000
18627 18628 1 0.10860 301825.392000
18628 18629 1 0.13986 296436.400000
18628 18637 1 0.13986 296436.400000
18629 18630 1 0.18850 35430.112000
18629 18631 1 0.13986 296436.400000
18631 18632 1 0.10860 301825.392000
18631 18633 1 0.13986 296436.400000
18633 18634 1 0.10860 301825.392000
18633 18635 1 0.13986 296436.400000
18635 18636 1 0.10860 301825.392000
18635 18637 1 0.13986 296436.400000
18637 18638 1 0.10860 301825.392000
18639 18640 1 0.10860 301825.392000
18640 18641 1 0.13986 296436.400000
18640 18649 1 0.13986 296436.400000
18641 18642 1 0.18850 35430.112000
18641 18643 1 0.13986 296436.400000
18643 18644 1 0.10860 301825.392000
18643 18645 1 0.13986 296436.400000
18645 18646 1 0.10860 301825.392000
18645 18647 1 0.13986 296436.400000
18647 18648 1 0.10860 301825.392000
18647 18649 1 0.13986 296436.400000
18649 18650 1 0.10860 301825.392000
18651 18652 1 0.10860 301825.392000
18652 18653 1 0.13986 296436.400000
18652 18661 1 0.13986 296436.400000
18653 18654 1 0.18850 35430.112000
18653 18655 1 0.13986 296436.400000
18655 18656 1 0.10860 301825.392000
18655 18657 1 0.13986 296436.400000
18657 18658 1 0.10860 301825.392000
18657 18659 1 0.13986 296436.400000
18659 18660 1 0.10860 301825.392000
18659 18661 1 0.13986 296436.400000
18661 18662 1 0.10860 301825.392000
18663 18664 1 0.10860 301825.392000
18664 18665 1 0.13986 296436.400000
18664 18673 1 0.13986 296436.400000
18665 18666 1 0.18850 35430.112000
18665 18667 1 0.13986 296436.400000
18667 18668 1 0.10860 301825.392000
18667 18669 1 0.13986 296436.400000
18669 18670 1 0.10860 301825.392000
18669 18671 1 0.13986 296436.400000
18671 18672 1 0.10860 301825.392000
18671 18673 1 0.13986 296436.400000
18673 18674 1 0.10860 301825.392000
18675 18676 1 0.10860 301825.392000
18676 18677 1 0.13986 296436.400000
18676 18685 1 0.13986 296436.400000
18677 18678 1 0.18850 35430.112000
18677 18679 1 0.13986 296436.400000
18679 18680 1 0.10860 301825.392000
18679 18681 1 0.13986 296436.400000
18681 18682 1 0.10860 301825.392000
18681 18683 1 0.13986 296436.400000
18683 18684 1 0.10860 301825.392000
18683 18685 1 0.13986 296436.400000
18685 18686 1 0.10860 301825.392000
18687 18688 1 0.10860 301825.392000
18688 18689 1 0.13986 296436.400000
18688 18697 1 0.13986 296436.400000
18689 18690 1 0.18850 35430.112000
18689 18691 1 0.13986 296436.400000
18691 18692 1 0.10860 301825.392000
18691 18693 1 0.13986 296436.400000
18693 18694 1 0.10860 301825.392000
18693 18695 1 0.13986 296436.400000
18695 18696 1 0.10860 301825.392000
18695 18697 1 0.13986 296436.400000
18697 18698 1 0.10860 301825.392000
18699 18700 1 0.10860 301825.392000
18700 18701 1 0.13986 296436.400000
18700 18709 1 0.13986 296436.400000
18701 18702 1 0.18850 35430.112000
18701 18703 1 0.13986 296436.400000
18703 18704 1 0.10860 301825.392000
18703 18705 1 0.13986 296436.400000
18705 18706 1 0.10860 301825.392000
18705 18707 1 0.13986 296436.400000
18707 18708 1 0.10860 301825.392000
18707 18709 1 0.13986 296436.400000
18709 18710 1 0.10860 301825.392000
18711 18712 1 0.10860 301825.392000
18712 18713 1 0.13986 296436.400000
18712 18721 1 0.13986 296436.400000
18713 18714 1 0.18850 35430.112000
18713 18715 1 0.13986 296436.400000
18715 18716 1 0.10860 301825.392000
18715 18717 1 0.13986 296436.400000
18717 18718 1 0.10860 301825.392000
18717 18719 1 0.13986 296436.400000
18719 18720 1 0.10860 301825.392000
18719 18721 1 0.13986 296436.400000
18721 18722 1 0.10860 301825.392000
18723 18724 1 0.10860 301825.392000
18724 18725 1 0.13986 296436.400000
18724 18733 1 0.13986 296436.400000
18725 18726 1 0.18850 35430.112000
18725 18727 1 0.13986 296436.400000
18727 18728 1 0.10860 301825.392000
18727 18729 1 0.13986 296436.400000
18729 18730 1 0.10860 301825.392000
18729 18731 1 0.13986 296436.400000
18731 18732 1 0.10860 301825.392000
18731 18733 1 0.13986 296436.400000
18733 18734 1 0.10860 301825.392000
18735 18736 1 0.10860 301825.392000
18736 18737 1 0.13986 296436.400000
18736 18745 1 0.13986 296436.400000
18737 18738 1 0.18850 35430.112000
18737 18739 1 0.13986 296436.400000
18739 18740 1 0.10860 301825.392000
18739 18741 1 0.13986 296436.400000
18741 18742 1 0.10860 301825.392000
18741 18743 1 0.13986 296436.400000
18743 18744 1 0.10860 301825.392000
18743 18745 1 0.13986 296436.400000
18745 18746 1 0.10860 301825.392000
18747 18748 1 0.10860 301825.392000
18748 18749 1 0.13986 296436.400000
18748 18757 1 0.13986 296436.400000
18749 18750 1 0.18850 35430.112000
18749 18751 1 0.13986 296436.400000
18751 18752 1 0.10860 301825.392000
18751 18753 1 0.13986 296436.400000
18753 18754 1 0.10860 301825.392000
18753 18755 1 0.13986 296436.400000
18755 18756 1 0.10860 301825.392000
18755 18757 1 0.13986 296436.400000
18757 18758 1 0.10860 301825.392000
18759 18760 1 0.10860 301825.392000
18760 18761 1 0.13986 296436.400000
18760 18769 1 0.13986 296436.400000
18761 18762 1 0.18850 35430.112000
18761 18763 1 0.13986 296436.400000
18763 18764 1 0.10860 301825.392000
18763 18765 1 0.13986 296436.400000
18765 18766 1 0.10860 301825.392000
18765 18767 1 0.13986 296436.400000
18767 18768 1 0.10860 301825.392000
18767 18769 1 0.13986 296436.400000
18769 18770 1 0.10860 301825.392000
18771 18772 1 0.10860 301825.392000
18772 18773 1 0.13986 296436.400000
18772 18781 1 0.13986 296436.400000
18773 18774 1 0.18850 35430.112000
18773 18775 1 0.13986 296436.400000
18775 18776 1 0.10860 301825.392000
18775 18777 1 0.13986 296436.400000
18777 18778 1 0.10860 301825.392000
18777 18779 1 0.13986 296436.400000
18779 18780 1 0.10860 301825.392000
18779 18781 1 0.13986 296436.400000
18781 18782 1 0.10860 301825.392000
18783 18784 1 0.10860 301825.392000
18784 18785 1 0.13986 296436.400000
18784 18793 1 0.13986 296436.400000
18785 18786 1 0.18850 35430.112000
18785 18787 1 0.13986 296436.400000
18787 18788 1 0.10860 301825.392000
18787 18789 1 0.13986 296436.400000
18789 18790 1 0.10860 301825.392000
18789 18791 1 0.13986 296436.400000
18791 18792 1 0.10860 301825.392000
18791 18793 1 0.13986 296436.400000
18793 18794 1 0.10860 301825.392000
18795 18796 1 0.10860 301825.392000
18796 18797 1 0.13986 296436.400000
18796 18805 1 0.13986 296436.400000
18797 18798 1 0.18850 35430.112000
18797 18799 1 0.13986 296436.400000
18799 18800 1 0.10860 301825.392000
18799 18801 1 0.13986 296436.400000
18801 18802 1 0.10860 301825.392000
18801 18803 1 0.13986 296436.400000
18803 18804 1 0.10860 301825.392000
18803 18805 1 0.13986 296436.400000
18805 18806 1 0.10860 301825.392000
18807 18808 1 0.10860 301825.392000
18808 18809 1 0.13986 296436.400000
18808 18817 1 0.13986 296436.400000
18809 18810 1 0.18850 35430.112000
18809 18811 1 0.13986 296436.400000
18811 18812 1 0.10860 301825.392000
18811 18813 1 0.13986 296436.400000
18813 18814 1 0.10860 301825.392000
18813 18815 1 0.13986 296436.400000
18815 18816 1 0.10860 301825.392000
18815 18817 1 0.13986 296436.400000
18817 18818 1 0.10860 301825.392000
18819 18820 1 0.10860 301825.392000
18820 18821 1 0.13986 296436.400000
18820 18829 1 0.13986 296436.400000
18821 18822 1 0.18850 35430.112000
18821 18823 1 0.13986 296436.400000
18823 18824 1 0.10860 301825.392000
18823 18825 1 0.13986 296436.400000
18825 18826 1 0.10860 301825.392000
18825 18827 1 0.13986 296436.400000
18827 18828 1 0.10860 301825.392000
18827 18829 1 0.13986 296436.400000
18829 18830 1 0.10860 301825.392000
18831 18832 1 0.10860 301825.392000
18832 18833 1 0.13986 296436.400000
18832 18841 1 0.13986 296436.400000
18833 18834 1 0.18850 35430.112000
18833 18835 1 0.13986 296436.400000
18835 18836 1 0.10860 301825.392000
18835 18837 1 0.13986 296436.400000
18837 18838 1 0.10860 301825.392000
18837 18839 1 0.13986 296436.400000
18839 18840 1 0.10860 301825.392000
18839 18841 1 0.13986 296436.400000
18841 18842 1 0.10860 301825.392000
18843 18844 1 0.10860 301825.392000
18844 18845 1 0.13986 296436.400000
18844 18853 1 0.13986 296436.400000
18845 18846 1 0.18850 35430.112000
18845 18847 1 0.13986 296436.400000
18847 18848 1 0.10860 301825.392000
18847 18849 1 0.13986 296436.400000
18849 18850 1 0.10860 301825.392000
18849 18851 1 0.13986 296436.400000
18851 18852 1 0.10860 301825.392000
18851 18853 1 0.13986 296436.400000
18853 18854 1 0.10860 301825.392000
18855 18856 1 0.10860 301825.392000
18856 18857 1 0.13986 296436.400000
18856 18865 1 0.13986 296436.400000
18857 18858 1 0.18850 35430.112000
18857 18859 1 0.13986 296436.400000
18859 18860 1 0.10860 301825.392000
18859 18861 1 0.13986 296436.400000
18861 18862 1 0.10860 301825.392000
18861 18863 1 0.13986 296436.400000
18863 18864 1 0.10860 301825.392000
18863 18865 1 0.13986 296436.400000
18865 18866 1 0.10860 301825.392000
18867 18868 1 0.10860 301825.392000
18868 18869 1 0.13986 296436.400000
18868 18877 1 0.13986 296436.400000
18869 18870 1 0.18850 35430.112000
18869 18871 1 0.13986 296436.400000
18871 18872 1 0.10860 301825.392000
18871 18873 1 0.13986 296436.400000
18873 18874 1 0.10860 301825.392000
18873 18875 1 0.13986 296436.400000
18875 18876 1 0.10860 301825.392000
18875 18877 1 0.13986 296436.400000
18877 18878 1 0.10860 301825.392000
18879 18880 1 0.10860 301825.392000
18880 18881 1 0.13986 296436.400000
18880 18889 1 0.13986 296436.400000
18881 18882 1 0.18850 35430.112000
18881 18883 1 0.13986 296436.400000
18883 18884 1 0.10860 301825.392000
18883 18885 1 0.13986 296436.400000
18885 18886 1 0.10860 301825.392000
18885 18887 1 0.13986 296436.400000
18887 18888 1 0.10860 301825.392000
18887 18889 1 0.13986 296436.400000
18889 18890 1 0.10860 301825.392000
18891 18892 1 0.10860 301825.392000
18892 18893 1 0.13986 296436.400000
18892 18901 1 0.13986 296436.400000
18893 18894 1 0.18850 35430.112000
18893 18895 1 0.13986 296436.400000
18895 18896 1 0.10860 301825.392000
18895 18897 1 0.13986 296436.400000
18897 18898 1 0.10860 301825.392000
18897 18899 1 0.13986 296436.400000
18899 18900 1 0.10860 301825.392000
18899 18901 1 0.13986 296436.400000
18901 18902 1 0.10860 301825.392000
18903 18904 1 0.10860 301825.392000
18904 18905 1 0.13986 296436.400000
18904 18913 1 0.13986 296436.400000
18905 18906 1 0.18850 35430.112000
18905 18907 1 0.13986 296436.400000
18907 18908 1 0.10860 301825.392000
18907 18909 1 0.13986 296436.400000
18909 18910 1 0.10860 301825.392000
18909 18911 1 0.13986 296436.400000
18911 18912 1 0.10860 301825.392000
18911 18913 1 0.13986 296436.400000
18913 18914 1 0.10860 301825.392000
18915 18916 1 0.10860 301825.392000
18916 18917 1 0.13986 296436.400000
18916 18925 1 0.13986 296436.400000
18917 18918 1 0.18850 35430.112000
18917 18919 1 0.13986 296436.400000
18919 18920 1 0.10860 301825.392000
18919 18921 1 0.13986 296436.400000
18921 18922 1 0.10860 301825.392000
18921 18923 1 0.13986 296436.400000
18923 18924 1 0.10860 301825.392000
18923 18925 1 0.13986 296436.400000
18925 18926 1 0.10860 301825.392000
18927 18928 1 0.10860 301825.392000
18928 18929 1 0.13986 296436.400000
18928 18937 1 0.13986 296436.400000
18929 18930 1 0.18850 35430.112000
18929 18931 1 0.13986 296436.400000
18931 18932 1 0.10860 301825.392000
18931 18933 1 0.13986 296436.400000
18933 18934 1 0.10860 301825.392000
18933 18935 1 0.13986 296436.400000
18935 18936 1 0.10860 301825.392000
18935 18937 1 0.13986 296436.400000
18937 18938 1 0.10860 301825.392000
18939 18940 1 0.10860 301825.392000
18940 18941 1 0.13986 296436.400000
18940 18949 1 0.13986 296436.400000
18941 18942 1 0.18850 35430.112000
18941 18943 1 0.13986 296436.400000
18943 18944 1 0.10860 301825.392000
18943 18945 1 0.13986 296436.400000
18945 18946 1 0.10860 301825.392000
18945 18947 1 0.13986 296436.400000
18947 18948 1 0.10860 301825.392000
18947 18949 1 0.13986 296436.400000
18949 18950 1 0.10860 301825.392000
18951 18952 1 0.10860 301825.392000
18952 18953 1 0.13986 296436.400000
18952 18961 1 0.13986 296436.400000
18953 18954 1 0.18850 35430.112000
18953 18955 1 0.13986 296436.400000
18955 18956 1 0.10860 301825.392000
18955 18957 1 0.13986 296436.400000
18957 18958 1 0.10860 301825.392000
18957 18959 1 0.13986 296436.400000
18959 18960 1 0.10860 301825.392000
18959 18961 1 0.13986 296436.400000
18961 18962 1 0.10860 301825.392000
18963 18964 1 0.10860 301825.392000
18964 18965 1 0.13986 296436.400000
18964 18973 1 0.13986 296436.400000
18965 18966 1 0.18850 35430.112000
18965 18967 1 0.13986 296436.400000
18967 18968 1 0.10860 301825.392000
18967 18969 1 0.13986 296436.400000
18969 18970 1 0.10860 301825.392000
18969 18971 1 0.13986 296436.400000
18971 18972 1 0.10860 301825.392000
18971 18973 1 0.13986 296436.400000
18973 18974 1 0.10860 301825.392000
18975 18976 1 0.10860 301825.392000
18976 18977 1 0.13986 296436.400000
18976 18985 1 0.13986 296436.400000
18977 18978 1 0.18850 35430.112000
18977 18979 1 0.13986 296436.400000
18979 18980 1 0.10860 301825.392000
18979 18981 1 0.13986 296436.400000
18981 18982 1 0.10860 301825.392000
18981 18983 1 0.13986 296436.400000
18983 18984 1 0.10860 301825.392000
18983 18985 1 0.13986 296436.400000
18985 18986 1 0.10860 301825.392000
18987 18988 1 0.10860 301825.392000
18988 18989 1 0.13986 296436.400000
18988 18997 1 0.13986 296436.400000
18989 18990 1 0.18850 35430.112000
18989 18991 1 0.13986 296436.400000
18991 18992 1 0.10860 301825.392000
18991 18993 1 0.13986 296436.400000
18993 18994 1 0.10860 301825.392000
18993 18995 1 0.13986 296436.400000
18995 18996 1 0.10860 301825.392000
18995 18997 1 0.13986 296436.400000
18997 18998 1 0.10860 301825.392000
18999 19000 1 0.10860 301825.392000
19000 19001 1 0.13986 296436.400000
19000 19009 1 0.13986 296436.400000
19001 19002 1 0.18850 35430.112000
19001 19003 1 0.13986 296436.400000
19003 19004 1 0.10860 301825.392000
19003 19005 1 0.13986 296436.400000
19005 19006 1 0.10860 301825.392000
19005 19007 1 0.13986 296436.400000
19007 19008 1 0.10860 301825.392000
19007 19009 1 0.13986 296436.400000
19009 19010 1 0.10860 301825.392000
19011 19012 1 0.10860 301825.392000
19012 19013 1 0.13986 296436.400000
19012 19021 1 0.13986 296436.400000
19013 19014 1 0.18850 35430.112000
19013 19015 1 0.13986 296436.400000
19015 19016 1 0.10860 301825.392000
19015 19017 1 0.13986 296436.400000
19017 19018 1 0.10860 301825.392000
19017 19019 1 0.13986 296436.400000
19019 19020 1 0.10860 301825.392000
19019 19021 1 0.13986 296436.400000
19021 19022 1 0.10860 301825.392000
19023 19024 1 0.10860 301825.392000
19024 19025 1 0.13986 296436.400000
19024 19033 1 0.13986 296436.400000
19025 19026 1 0.18850 35430.112000
19025 19027 1 0.13986 296436.400000
19027 19028 1 0.10860 301825.392000
19027 19029 1 0.13986 296436.400000
19029 19030 1 0.10860 301825.392000
19029 19031 1 0.13986 296436.400000
19031 19032 1 0.10860 301825.392000
19031 19033 1 0.13986 296436.400000
19033 19034 1 0.10860 301825.392000
19035 19036 1 0.10860 301825.392000
19036 19037 1 0.13986 296436.400000
19036 19045 1 0.13986 296436.400000
19037 19038 1 0.18850 35430.112000
19037 19039 1 0.13986 296436.400000
19039 19040 1 0.10860 301825.392000
19039 19041 1 0.13986 296436.400000
19041 19042 1 0.10860 301825.392000
19041 19043 1 0.13986 296436.400000
19043 19044 1 0.10860 301825.392000
19043 19045 1 0.13986 296436.400000
19045 19046 1 0.10860 301825.392000
19047 19048 1 0.10860 301825.392000
19048 19049 1 0.13986 296436.400000
19048 19057 1 0.13986 296436.400000
19049 19050 1 0.18850 35430.112000
19049 19051 1 0.13986 296436.400000
19051 19052 1 0.10860 301825.392000
19051 19053 1 0.13986 296436.400000
19053 19054 1 0.10860 301825.392000
19053 19055 1 0.13986 296436.400000
19055 19056 1 0.10860 301825.392000
19055 19057 1 0.13986 296436.400000
19057 19058 1 0.10860 301825.392000
19059 19060 1 0.10860 301825.392000
19060 19061 1 0.13986 296436.400000
19060 19069 1 0.13986 296436.400000
19061 19062 1 0.18850 35430.112000
19061 19063 1 0.13986 296436.400000
19063 19064 1 0.10860 301825.392000
19063 19065 1 0.13986 296436.400000
19065 19066 1 0.10860 301825.392000
19065 19067 1 0.13986 296436.400000
19067 19068 1 0.10860 301825.392000
19067 19069 1 0.13986 296436.400000
19069 19070 1 0.10860 301825.392000
19071 19072 1 0.10860 301825.392000
19072 19073 1 0.13986 296436.400000
19072 19081 1 0.13986 296436.400000
19073 19074 1 0.18850 35430.112000
19073 19075 1 0.13986 296436.400000
19075 19076 1 0.10860 301825.392000
19075 19077 1 0.13986 296436.400000
19077 19078 1 0.10860 301825.392000
19077 19079 1 0.13986 296436.400000
19079 19080 1 0.10860 301825.392000
19079 19081 1 0.13986 296436.400000
19081 19082 1 0.10860 301825.392000
19083 19084 1 0.10860 301825.392000
19084 19085 1 0.13986 296436.400000
19084 19093 1 0.13986 296436.400000
19085 19086 1 0.18850 35430.112000
19085 19087 1 0.13986 296436.400000
19087 19088 1 0.10860 301825.392000
19087 19089 1 0.13986 296436.400000
19089 19090 1 0.10860 301825.392000
19089 19091 1 0.13986 296436.400000
19091 19092 1 0.10860 301825.392000
19091 19093 1 0.13986 296436.400000
19093 19094 1 0.10860 301825.392000
19095 19096 1 0.10860 301825.392000
19096 19097 1 0.13986 296436.400000
19096 19105 1 0.13986 296436.400000
19097 19098 1 0.18850 35430.112000
19097 19099 1 0.13986 296436.400000
19099 19100 1 0.10860 301825.392000
19099 19101 1 0.13986 296436.400000
19101 19102 1 0.10860 301825.392000
19101 19103 1 0.13986 296436.400000
19103 19104 1 0.10860 301825.392000
19103 19105 1 0.13986 296436.400000
19105 19106 1 0.10860 301825.392000
19107 19108 1 0.10860 301825.392000
19108 19109 1 0.13986 296436.400000
19108 19117 1 0.13986 296436.400000
19109 19110 1 0.18850 35430.112000
19109 19111 1 0.13986 296436.400000
19111 19112 1 0.10860 301825.392000
19111 19113 1 0.13986 296436.400000
19113 19114 1 0.10860 301825.392000
19113 19115 1 0.13986 296436.400000
19115 19116 1 0.10860 301825.392000
19115 19117 1 0.13986 296436.400000
19117 19118 1 0.10860 301825.392000
19119 19120 1 0.10860 301825.392000
19120 19121 1 0.13986 296436.400000
19120 19129 1 0.13986 296436.400000
19121 19122 1 0.18850 35430.112000
19121 19123 1 0.13986 296436.400000
19123 19124 1 0.10860 301825.392000
19123 19125 1 0.13986 296436.400000
19125 19126 1 0.10860 301825.392000
19125 19127 1 0.13986 296436.400000
19127 19128 1 0.10860 301825.392000
19127 19129 1 0.13986 296436.400000
19129 19130 1 0.10860 301825.392000
19131 19132 1 0.10860 301825.392000
19132 19133 1 0.13986 296436.400000
19132 19141 1 0.13986 296436.400000
19133 19134 1 0.18850 35430.112000
19133 19135 1 0.13986 296436.400000
19135 19136 1 0.10860 301825.392000
19135 19137 1 0.13986 296436.400000
19137 19138 1 0.10860 301825.392000
19137 19139 1 0.13986 296436.400000
19139 19140 1 0.10860 301825.392000
19139 19141 1 0.13986 296436.400000
19141 19142 1 0.10860 301825.392000
19143 19144 1 0.10860 301825.392000
19144 19145 1 0.13986 296436.400000
19144 19153 1 0.13986 296436.400000
19145 19146 1 0.18850 35430.112000
19145 19147 1 0.13986 296436.400000
19147 19148 1 0.10860 301825.392000
19147 19149 1 0.13986 296436.400000
19149 19150 1 0.10860 301825.392000
19149 19151 1 0.13986 296436.400000
19151 19152 1 0.10860 301825.392000
19151 19153 1 0.13986 296436.400000
19153 19154 1 0.10860 301825.392000
19155 19156 1 0.10860 301825.392000
19156 19157 1 0.13986 296436.400000
19156 19165 1 0.13986 296436.400000
19157 19158 1 0.18850 35430.112000
19157 19159 1 0.13986 296436.400000
19159 19160 1 0.10860 301825.392000
19159 19161 1 0.13986 296436.400000
19161 19162 1 0.10860 301825.392000
19161 19163 1 0.13986 296436.400000
19163 19164 1 0.10860 301825.392000
19163 19165 1 0.13986 296436.400000
19165 19166 1 0.10860 301825.392000
19167 19168 1 0.10860 301825.392000
19168 19169 1 0.13986 296436.400000
19168 19177 1 0.13986 296436.400000
19169 19170 1 0.18850 35430.112000
19169 19171 1 0.13986 296436.400000
19171 19172 1 0.10860 301825.392000
19171 19173 1 0.13986 296436.400000
19173 19174 1 0.10860 301825.392000
19173 19175 1 0.13986 296436.400000
19175 19176 1 0.10860 301825.392000
19175 19177 1 0.13986 296436.400000
19177 19178 1 0.10860 301825.392000
19179 19180 1 0.10860 301825.392000
19180 19181 1 0.13986 296436.400000
19180 19189 1 0.13986 296436.400000
19181 19182 1 0.18850 35430.112000
19181 19183 1 0.13986 296436.400000
19183 19184 1 0.10860 301825.392000
19183 19185 1 0.13986 296436.400000
19185 19186 1 0.10860 301825.392000
19185 19187 1 0.13986 296436.400000
19187 19188 1 0.10860 301825.392000
19187 19189 1 0.13986 296436.400000
19189 19190 1 0.10860 301825.392000
19191 19192 1 0.10860 301825.392000
19192 19193 1 0.13986 296436.400000
19192 19201 1 0.13986 296436.400000
19193 19194 1 0.18850 35430.112000
19193 19195 1 0.13986 296436.400000
19195 19196 1 0.10860 301825.392000
19195 19197 1 0.13986 296436.400000
19197 19198 1 0.10860 301825.392000
19197 19199 1 0.13986 296436.400000
19199 19200 1 0.10860 301825.392000
19199 19201 1 0.13986 296436.400000
19201 19202 1 0.10860 301825.392000
19203 19204 1 0.10860 301825.392000
19204 19205 1 0.13986 296436.400000
19204 19213 1 0.13986 296436.400000
19205 19206 1 0.18850 35430.112000
19205 19207 1 0.13986 296436.400000
19207 19208 1 0.10860 301825.392000
19207 19209 1 0.13986 296436.400000
19209 19210 1 0.10860 301825.392000
19209 19211 1 0.13986 296436.400000
19211 19212 1 0.10860 301825.392000
19211 19213 1 0.13986 296436.400000
19213 19214 1 0.10860 301825.392000
19215 19216 1 0.10860 301825.392000
19216 19217 1 0.13986 296436.400000
19216 19225 1 0.13986 296436.400000
19217 19218 1 0.18850 35430.112000
19217 19219 1 0.13986 296436.400000
19219 19220 1 0.10860 301825.392000
19219 19221 1 0.13986 296436.400000
19221 19222 1 0.10860 301825.392000
19221 19223 1 0.13986 296436.400000
19223 19224 1 0.10860 301825.392000
19223 19225 1 0.13986 296436.400000
19225 19226 1 0.10860 301825.392000
19227 19228 1 0.10860 301825.392000
19228 19229 1 0.13986 296436.400000
19228 19237 1 0.13986 296436.400000
19229 19230 1 0.18850 35430.112000
19229 19231 1 0.13986 296436.400000
19231 19232 1 0.10860 301825.392000
19231 19233 1 0.13986 296436.400000
19233 19234 1 0.10860 301825.392000
19233 19235 1 0.13986 296436.400000
19235 19236 1 0.10860 301825.392000
19235 19237 1 0.13986 296436.400000
19237 19238 1 0.10860 301825.392000
19239 19240 1 0.10860 301825.392000
19240 19241 1 0.13986 296436.400000
19240 19249 1 0.13986 296436.400000
19241 19242 1 0.18850 35430.112000
19241 19243 1 0.13986 296436.400000
19243 19244 1 0.10860 301825.392000
19243 19245 1 0.13986 296436.400000
19245 19246 1 0.10860 301825.392000
19245 19247 1 0.13986 296436.400000
19247 19248 1 0.10860 301825.392000
19247 19249 1 0.13986 296436.400000
19249 19250 1 0.10860 301825.392000
19251 19252 1 0.10860 301825.392000
19252 19253 1 0.13986 296436.400000
19252 19261 1 0.13986 296436.400000
19253 19254 1 0.18850 35430.112000
19253 19255 1 0.13986 296436.400000
19255 19256 1 0.10860 301825.392000
19255 19257 1 0.13986 296436.400000
19257 19258 1 0.10860 301825.392000
19257 19259 1 0.13986 296436.400000
19259 19260 1 0.10860 301825.392000
19259 19261 1 0.13986 296436.400000
19261 19262 1 0.10860 301825.392000
19263 19264 1 0.10860 301825.392000
19264 19265 1 0.13986 296436.400000
19264 19273 1 0.13986 296436.400000
19265 19266 1 0.18850 35430.112000
19265 19267 1 0.13986 296436.400000
19267 19268 1 0.10860 301825.392000
19267 19269 1 0.13986 296436.400000
19269 19270 1 0.10860 301825.392000
19269 19271 1 0.13986 296436.400000
19271 19272 1 0.10860 301825.392000
19271 19273 1 0.13986 296436.400000
19273 19274 1 0.10860 301825.392000
19275 19276 1 0.10860 301825.392000
19276 19277 1 0.13986 296436.400000
19276 19285 1 0.13986 296436.400000
19277 19278 1 0.18850 35430.112000
19277 19279 1 0.13986 296436.400000
19279 19280 1 0.10860 301825.392000
19279 19281 1 0.13986 296436.400000
19281 19282 1 0.10860 301825.392000
19281 19283 1 0.13986 296436.400000
19283 19284 1 0.10860 301825.392000
19283 19285 1 0.13986 296436.400000
19285 19286 1 0.10860 301825.392000
19287 19288 1 0.10860 301825.392000
19288 19289 1 0.13986 296436.400000
19288 19297 1 0.13986 296436.400000
19289 19290 1 0.18850 35430.112000
19289 19291 1 0.13986 296436.400000
19291 19292 1 0.10860 301825.392000
19291 19293 1 0.13986 296436.400000
19293 19294 1 0.10860 301825.392000
19293 19295 1 0.13986 296436.400000
19295 19296 1 0.10860 301825.392000
19295 19297 1 0.13986 296436.400000
19297 19298 1 0.10860 301825.392000
19299 19300 1 0.10860 301825.392000
19300 19301 1 0.13986 296436.400000
19300 19309 1 0.13986 296436.400000
19301 19302 1 0.18850 35430.112000
19301 19303 1 0.13986 296436.400000
19303 19304 1 0.10860 301825.392000
19303 19305 1 0.13986 296436.400000
19305 19306 1 0.10860 301825.392000
19305 19307 1 0.13986 296436.400000
19307 19308 1 0.10860 301825.392000
19307 19309 1 0.13986 296436.400000
19309 19310 1 0.10860 301825.392000
19311 19312 1 0.10860 301825.392000
19312 19313 1 0.13986 296436.400000
19312 19321 1 0.13986 296436.400000
19313 19314 1 0.18850 35430.112000
19313 19315 1 0.13986 296436.400000
19315 19316 1 0.10860 301825.392000
19315 19317 1 0.13986 296436.400000
19317 19318 1 0.10860 301825.392000
19317 19319 1 0.13986 296436.400000
19319 19320 1 0.10860 301825.392000
19319 19321 1 0.13986 296436.400000
19321 19322 1 0.10860 301825.392000
19323 19324 1 0.10860 301825.392000
19324 19325 1 0.13986 296436.400000
19324 19333 1 0.13986 296436.400000
19325 19326 1 0.18850 35430.112000
19325 19327 1 0.13986 296436.400000
19327 19328 1 0.10860 301825.392000
19327 19329 1 0.13986 296436.400000
19329 19330 1 0.10860 301825.392000
19329 19331 1 0.13986 296436.400000
19331 19332 1 0.10860 301825.392000
19331 19333 1 0.13986 296436.400000
19333 19334 1 0.10860 301825.392000
19335 19336 1 0.10860 301825.392000
19336 19337 1 0.13986 296436.400000
19336 19345 1 0.13986 296436.400000
19337 19338 1 0.18850 35430.112000
19337 19339 1 0.13986 296436.400000
19339 19340 1 0.10860 301825.392000
19339 19341 1 0.13986 296436.400000
19341 19342 1 0.10860 301825.392000
19341 19343 1 0.13986 296436.400000
19343 19344 1 0.10860 301825.392000
19343 19345 1 0.13986 296436.400000
19345 19346 1 0.10860 301825.392000
19347 19348 1 0.10860 301825.392000
19348 19349 1 0.13986 296436.400000
19348 19357 1 0.13986 296436.400000
19349 19350 1 0.18850 35430.112000
19349 19351 1 0.13986 296436.400000
19351 19352 1 0.10860 301825.392000
19351 19353 1 0.13986 296436.400000
19353 19354 1 0.10860 301825.392000
19353 19355 1 0.13986 296436.400000
19355 19356 1 0.10860 301825.392000
19355 19357 1 0.13986 296436.400000
19357 19358 1 0.10860 301825.392000
19359 19360 1 0.10860 301825.392000
19360 19361 1 0.13986 296436.400000
19360 19369 1 0.13986 296436.400000
19361 19362 1 0.18850 35430.112000
19361 19363 1 0.13986 296436.400000
19363 19364 1 0.10860 301825.392000
19363 19365 1 0.13986 296436.400000
19365 19366 1 0.10860 301825.392000
19365 19367 1 0.13986 296436.400000
19367 19368 1 0.10860 301825.392000
19367 19369 1 0.13986 296436.400000
19369 19370 1 0.10860 301825.392000
19371 19372 1 0.10860 301825.392000
19372 19373 1 0.13986 296436.400000
19372 19381 1 0.13986 296436.400000
19373 19374 1 0.18850 35430.112000
19373 19375 1 0.13986 296436.400000
19375 19376 1 0.10860 301825.392000
19375 19377 1 0.13986 296436.400000
19377 19378 1 0.10860 301825.392000
19377 19379 1 0.13986 296436.400000
19379 19380 1 0.10860 301825.392000
19379 19381 1 0.13986 296436.400000
19381 19382 1 0.10860 301825.392000
19383 19384 1 0.10860 301825.392000
19384 19385 1 0.13986 296436.400000
19384 19393 1 0.13986 296436.400000
19385 19386 1 0.18850 35430.112000
19385 19387 1 0.13986 296436.400000
19387 19388 1 0.10860 301825.392000
19387 19389 1 0.13986 296436.400000
19389 19390 1 0.10860 301825.392000
19389 19391 1 0.13986 296436.400000
19391 19392 1 0.10860 301825.392000
19391 19393 1 0.13986 296436.400000
19393 19394 1 0.10860 301825.392000
19395 19396 1 0.10860 301825.392000
19396 19397 1 0.13986 296436.400000
19396 19405 1 0.13986 296436.400000
19397 19398 1 0.18850 35430.112000
19397 19399 1 0.13986 296436.400000
19399 19400 1 0.10860 301825.392000
19399 19401 1 0.13986 296436.400000
19401 19402 1 0.10860 301825.392000
19401 19403 1 0.13986 296436.400000
19403 19404 1 0.10860 301825.392000
19403 19405 1 0.13986 296436.400000
19405 19406 1 0.10860 301825.392000
19407 19408 1 0.10860 301825.392000
19408 19409 1 0.13986 296436.400000
19408 19417 1 0.13986 296436.400000
19409 19410 1 0.18850 35430.112000
19409 19411 1 0.13986 296436.400000
19411 19412 1 0.10860 301825.392000
19411 19413 1 0.13986 296436.400000
19413 19414 1 0.10860 301825.392000
19413 19415 1 0.13986 296436.400000
19415 19416 1 0.10860 301825.392000
19415 19417 1 0.13986 296436.400000
19417 19418 1 0.10860 301825.392000
19419 19420 1 0.10860 301825.392000
19420 19421 1 0.13986 296436.400000
19420 19429 1 0.13986 296436.400000
19421 19422 1 0.18850 35430.112000
19421 19423 1 0.13986 296436.400000
19423 19424 1 0.10860 301825.392000
19423 19425 1 0.13986 296436.400000
19425 19426 1 0.10860 301825.392000
19425 19427 1 0.13986 296436.400000
19427 19428 1 0.10860 301825.392000
19427 19429 1 0.13986 296436.400000
19429 19430 1 0.10860 301825.392000
19431 19432 1 0.10860 301825.392000
19432 19433 1 0.13986 296436.400000
19432 19441 1 0.13986 296436.400000
19433 19434 1 0.18850 35430.112000
19433 19435 1 0.13986 296436.400000
19435 19436 1 0.10860 301825.392000
19435 19437 1 0.13986 296436.400000
19437 19438 1 0.10860 301825.392000
19437 19439 1 0.13986 296436.400000
19439 19440 1 0.10860 301825.392000
19439 19441 1 0.13986 296436.400000
19441 19442 1 0.10860 301825.392000
19443 19444 1 0.10860 301825.392000
19444 19445 1 0.13986 296436.400000
19444 19453 1 0.13986 296436.400000
19445 19446 1 0.18850 35430.112000
19445 19447 1 0.13986 296436.400000
19447 19448 1 0.10860 301825.392000
19447 19449 1 0.13986 296436.400000
19449 19450 1 0.10860 301825.392000
19449 19451 1 0.13986 296436.400000
19451 19452 1 0.10860 301825.392000
19451 19453 1 0.13986 296436.400000
19453 19454 1 0.10860 301825.392000
19455 19456 1 0.10860 301825.392000
19456 19457 1 0.13986 296436.400000
19456 19465 1 0.13986 296436.400000
19457 19458 1 0.18850 35430.112000
19457 19459 1 0.13986 296436.400000
19459 19460 1 0.10860 301825.392000
19459 19461 1 0.13986 296436.400000
19461 19462 1 0.10860 301825.392000
19461 19463 1 0.13986 296436.400000
19463 19464 1 0.10860 301825.392000
19463 19465 1 0.13986 296436.400000
19465 19466 1 0.10860 301825.392000
19467 19468 1 0.10860 301825.392000
19468 19469 1 0.13986 296436.400000
19468 19477 1 0.13986 296436.400000
19469 19470 1 0.18850 35430.112000
19469 19471 1 0.13986 296436.400000
19471 19472 1 0.10860 301825.392000
19471 19473 1 0.13986 296436.400000
19473 19474 1 0.10860 301825.392000
19473 19475 1 0.13986 296436.400000
19475 19476 1 0.10860 301825.392000
19475 19477 1 0.13986 296436.400000
19477 19478 1 0.10860 301825.392000
19479 19480 1 0.10860 301825.392000
19480 19481 1 0.13986 296436.400000
19480 19489 1 0.13986 296436.400000
19481 19482 1 0.18850 35430.112000
19481 19483 1 0.13986 296436.400000
19483 19484 1 0.10860 301825.392000
19483 19485 1 0.13986 296436.400000
19485 19486 1 0.10860 301825.392000
19485 19487 1 0.13986 296436.400000
19487 19488 1 0.10860 301825.392000
19487 19489 1 0.13986 296436.400000
19489 19490 1 0.10860 301825.392000
19491 19492 1 0.10860 301825.392000
19492 19493 1 0.13986 296436.400000
19492 19501 1 0.13986 296436.400000
19493 19494 1 0.18850 35430.112000
19493 19495 1 0.13986 296436.400000
19495 19496 1 0.10860 301825.392000
19495 19497 1 0.13986 296436.400000
19497 19498 1 0.10860 301825.392000
19497 19499 1 0.13986 296436.400000
19499 19500 1 0.10860 301825.392000
19499 19501 1 0.13986 296436.400000
19501 19502 1 0.10860 301825.392000
19503 19504 1 0.10860 301825.392000
19504 19505 1 0.13986 296436.400000
19504 19513 1 0.13986 296436.400000
19505 19506 1 0.18850 35430.112000
19505 19507 1 0.13986 296436.400000
19507 19508 1 0.10860 301825.392000
19507 19509 1 0.13986 296436.400000
19509 19510 1 0.10860 301825.392000
19509 19511 1 0.13986 296436.400000
19511 19512 1 0.10860 301825.392000
19511 19513 1 0.13986 296436.400000
19513 19514 1 0.10860 301825.392000
19515 19516 1 0.10860 301825.392000
19516 19517 1 0.13986 296436.400000
19516 19525 1 0.13986 296436.400000
19517 19518 1 0.18850 35430.112000
19517 19519 1 0.13986 296436.400000
19519 19520 1 0.10860 301825.392000
19519 19521 1 0.13986 296436.400000
19521 19522 1 0.10860 301825.392000
19521 19523 1 0.13986 296436.400000
19523 19524 1 0.10860 301825.392000
19523 19525 1 0.13986 296436.400000
19525 19526 1 0.10860 301825.392000
19527 19528 1 0.10860 301825.392000
19528 19529 1 0.13986 296436.400000
19528 19537 1 0.13986 296436.400000
19529 19530 1 0.18850 35430.112000
19529 19531 1 0.13986 296436.400000
19531 19532 1 0.10860 301825.392000
19531 19533 1 0.13986 296436.400000
19533 19534 1 0.10860 301825.392000
19533 19535 1 0.13986 296436.400000
19535 19536 1 0.10860 301825.392000
19535 19537 1 0.13986 296436.400000
19537 19538 1 0.10860 301825.392000
19539 19540 1 0.10860 301825.392000
19540 19541 1 0.13986 296436.400000
19540 19549 1 0.13986 296436.400000
19541 19542 1 0.18850 35430.112000
19541 19543 1 0.13986 296436.400000
19543 19544 1 0.10860 301825.392000
19543 19545 1 0.13986 296436.400000
19545 19546 1 0.10860 301825.392000
19545 19547 1 0.13986 296436.400000
19547 19548 1 0.10860 301825.392000
19547 19549 1 0.13986 296436.400000
19549 19550 1 0.10860 301825.392000
19551 19552 1 0.10860 301825.392000
19552 19553 1 0.13986 296436.400000
19552 19561 1 0.13986 296436.400000
19553 19554 1 0.18850 35430.112000
19553 19555 1 0.13986 296436.400000
19555 19556 1 0.10860 301825.392000
19555 19557 1 0.13986 296436.400000
19557 19558 1 0.10860 301825.392000
19557 19559 1 0.13986 296436.400000
19559 19560 1 0.10860 301825.392000
19559 19561 1 0.13986 296436.400000
19561 19562 1 0.10860 301825.392000
19563 19564 1 0.10860 301825.392000
19564 19565 1 0.13986 296436.400000
19564 19573 1 0.13986 296436.400000
19565 19566 1 0.18850 35430.112000
19565 19567 1 0.13986 296436.400000
19567 19568 1 0.10860 301825.392000
19567 19569 1 0.13986 296436.400000
19569 19570 1 0.10860 301825.392000
19569 19571 1 0.13986 296436.400000
19571 19572 1 0.10860 301825.392000
19571 19573 1 0.13986 296436.400000
19573 19574 1 0.10860 301825.392000
19575 19576 1 0.10860 301825.392000
19576 19577 1 0.13986 296436.400000
19576 19585 1 0.13986 296436.400000
19577 19578 1 0.18850 35430.112000
19577 19579 1 0.13986 296436.400000
19579 19580 1 0.10860 301825.392000
19579 19581 1 0.13986 296436.400000
19581 19582 1 0.10860 301825.392000
19581 19583 1 0.13986 296436.400000
19583 19584 1 0.10860 301825.392000
19583 19585 1 0.13986 296436.400000
19585 19586 1 0.10860 301825.392000
19587 19588 1 0.10860 301825.392000
19588 19589 1 0.13986 296436.400000
19588 19597 1 0.13986 296436.400000
19589 19590 1 0.18850 35430.112000
19589 19591 1 0.13986 296436.400000
19591 19592 1 0.10860 301825.392000
19591 19593 1 0.13986 296436.400000
19593 19594 1 0.10860 301825.392000
19593 19595 1 0.13986 296436.400000
19595 19596 1 0.10860 301825.392000
19595 19597 1 0.13986 296436.400000
19597 19598 1 0.10860 301825.392000
19599 19600 1 0.10860 301825.392000
19600 19601 1 0.13986 296436.400000
19600 19609 1 0.13986 296436.400000
19601 19602 1 0.18850 35430.112000
19601 19603 1 0.13986 296436.400000
19603 19604 1 0.10860 301825.392000
19603 19605 1 0.13986 296436.400000
19605 19606 1 0.10860 301825.392000
19605 19607 1 0.13986 296436.400000
19607 19608 1 0.10860 301825.392000
19607 19609 1 0.13986 296436.400000
19609 19610 1 0.10860 301825.392000
19611 19612 1 0.10860 301825.392000
19612 19613 1 0.13986 296436.400000
19612 19621 1 0.13986 296436.400000
19613 19614 1 0.18850 35430.112000
19613 19615 1 0.13986 296436.400000
19615 19616 1 0.10860 301825.392000
19615 19617 1 0.13986 296436.400000
19617 19618 1 0.10860 301825.392000
19617 19619 1 0.13986 296436.400000
19619 19620 1 0.10860 301825.392000
19619 19621 1 0.13986 296436.400000
19621 19622 1 0.10860 301825.392000
19623 19624 1 0.10860 301825.392000
19624 19625 1 0.13986 296436.400000
19624 19633 1 0.13986 296436.400000
19625 19626 1 0.18850 35430.112000
19625 19627 1 0.13986 296436.400000
19627 19628 1 0.10860 301825.392000
19627 19629 1 0.13986 296436.400000
19629 19630 1 0.10860 301825.392000
19629 19631 1 0.13986 296436.400000
19631 19632 1 0.10860 301825.392000
19631 19633 1 0.13986 296436.400000
19633 19634 1 0.10860 301825.392000
19635 19636 1 0.10860 301825.392000
19636 19637 1 0.13986 296436.400000
19636 19645 1 0.13986 296436.400000
19637 19638 1 0.18850 35430.112000
19637 19639 1 0.13986 296436.400000
19639 19640 1 0.10860 301825.392000
19639 19641 1 0.13986 296436.400000
19641 19642 1 0.10860 301825.392000
19641 19643 1 0.13986 296436.400000
19643 19644 1 0.10860 301825.392000
19643 19645 1 0.13986 296436.400000
19645 19646 1 0.10860 301825.392000
19647 19648 1 0.10860 301825.392000
19648 19649 1 0.13986 296436.400000
19648 19657 1 0.13986 296436.400000
19649 19650 1 0.18850 35430.112000
19649 19651 1 0.13986 296436.400000
19651 19652 1 0.10860 301825.392000
19651 19653 1 0.13986 296436.400000
19653 19654 1 0.10860 301825.392000
19653 19655 1 0.13986 296436.400000
19655 19656 1 0.10860 301825.392000
19655 19657 1 0.13986 296436.400000
19657 19658 1 0.10860 301825.392000
19659 19660 1 0.10860 301825.392000
19660 19661 1 0.13986 296436.400000
19660 19669 1 0.13986 296436.400000
19661 19662 1 0.18850 35430.112000
19661 19663 1 0.13986 296436.400000
19663 19664 1 0.10860 301825.392000
19663 19665 1 0.13986 296436.400000
19665 19666 1 0.10860 301825.392000
19665 19667 1 0.13986 296436.400000
19667 19668 1 0.10860 301825.392000
19667 19669 1 0.13986 296436.400000
19669 19670 1 0.10860 301825.392000
19671 19672 1 0.10860 301825.392000
19672 19673 1 0.13986 296436.400000
19672 19681 1 0.13986 296436.400000
19673 19674 1 0.18850 35430.112000
19673 19675 1 0.13986 296436.400000
19675 19676 1 0.10860 301825.392000
19675 19677 1 0.13986 296436.400000
19677 19678 1 0.10860 301825.392000
19677 19679 1 0.13986 296436.400000
19679 19680 1 0.10860 301825.392000
19679 19681 1 0.13986 296436.400000
19681 19682 1 0.10860 301825.392000
19683 19684 1 0.10860 301825.392000
19684 19685 1 0.13986 296436.400000
19684 19693 1 0.13986 296436.400000
19685 19686 1 0.18850 35430.112000
19685 19687 1 0.13986 296436.400000
19687 19688 1 0.10860 301825.392000
19687 19689 1 0.13986 296436.400000
19689 19690 1 0.10860 301825.392000
19689 19691 1 0.13986 296436.400000
19691 19692 1 0.10860 301825.392000
19691 19693 1 0.13986 296436.400000
19693 19694 1 0.10860 301825.392000
19695 19696 1 0.10860 301825.392000
19696 19697 1 0.13986 296436.400000
19696 19705 1 0.13986 296436.400000
19697 19698 1 0.18850 35430.112000
19697 19699 1 0.13986 296436.400000
19699 19700 1 0.10860 301825.392000
19699 19701 1 0.13986 296436.400000
19701 19702 1 0.10860 301825.392000
19701 19703 1 0.13986 296436.400000
19703 19704 1 0.10860 301825.392000
19703 19705 1 0.13986 296436.400000
19705 19706 1 0.10860 301825.392000
19707 19708 1 0.10860 301825.392000
19708 19709 1 0.13986 296436.400000
19708 19717 1 0.13986 296436.400000
19709 19710 1 0.18850 35430.112000
19709 19711 1 0.13986 296436.400000
19711 19712 1 0.10860 301825.392000
19711 19713 1 0.13986 296436.400000
19713 19714 1 0.10860 301825.392000
19713 19715 1 0.13986 296436.400000
19715 19716 1 0.10860 301825.392000
19715 19717 1 0.13986 296436.400000
19717 19718 1 0.10860 301825.392000
19719 19720 1 0.10860 301825.392000
19720 19721 1 0.13986 296436.400000
19720 19729 1 0.13986 296436.400000
19721 19722 1 0.18850 35430.112000
19721 19723 1 0.13986 296436.400000
19723 19724 1 0.10860 301825.392000
19723 19725 1 0.13986 296436.400000
19725 19726 1 0.10860 301825.392000
19725 19727 1 0.13986 296436.400000
19727 19728 1 0.10860 301825.392000
19727 19729 1 0.13986 296436.400000
19729 19730 1 0.10860 301825.392000
19731 19732 1 0.10860 301825.392000
19732 19733 1 0.13986 296436.400000
19732 19741 1 0.13986 296436.400000
19733 19734 1 0.18850 35430.112000
19733 19735 1 0.13986 296436.400000
19735 19736 1 0.10860 301825.392000
19735 19737 1 0.13986 296436.400000
19737 19738 1 0.10860 301825.392000
19737 19739 1 0.13986 296436.400000
19739 19740 1 0.10860 301825.392000
19739 19741 1 0.13986 296436.400000
19741 19742 1 0.10860 301825.392000
19743 19744 1 0.10860 301825.392000
19744 19745 1 0.13986 296436.400000
19744 19753 1 0.13986 296436.400000
19745 19746 1 0.18850 35430.112000
19745 19747 1 0.13986 296436.400000
19747 19748 1 0.10860 301825.392000
19747 19749 1 0.13986 296436.400000
19749 19750 1 0.10860 301825.392000
19749 19751 1 0.13986 296436.400000
19751 19752 1 0.10860 301825.392000
19751 19753 1 0.13986 296436.400000
19753 19754 1 0.10860 301825.392000
19755 19756 1 0.10860 301825.392000
19756 19757 1 0.13986 296436.400000
19756 19765 1 0.13986 296436.400000
19757 19758 1 0.18850 35430.112000
19757 19759 1 0.13986 296436.400000
19759 19760 1 0.10860 301825.392000
19759 19761 1 0.13986 296436.400000
19761 19762 1 0.10860 301825.392000
19761 19763 1 0.13986 296436.400000
19763 19764 1 0.10860 301825.392000
19763 19765 1 0.13986 296436.400000
19765 19766 1 0.10860 301825.392000
19767 19768 1 0.10860 301825.392000
19768 19769 1 0.13986 296436.400000
19768 19777 1 0.13986 296436.400000
19769 19770 1 0.18850 35430.112000
19769 19771 1 0.13986 296436.400000
19771 19772 1 0.10860 301825.392000
19771 19773 1 0.13986 296436.400000
19773 19774 1 0.10860 301825.392000
19773 19775 1 0.13986 296436.400000
19775 19776 1 0.10860 301825.392000
19775 19777 1 0.13986 296436.400000
19777 19778 1 0.10860 301825.392000
19779 19780 1 0.10860 301825.392000
19780 19781 1 0.13986 296436.400000
19780 19789 1 0.13986 296436.400000
19781 19782 1 0.18850 35430.112000
19781 19783 1 0.13986 296436.400000
19783 19784 1 0.10860 301825.392000
19783 19785 1 0.13986 296436.400000
19785 19786 1 0.10860 301825.392000
19785 19787 1 0.13986 296436.400000
19787 19788 1 0.10860 301825.392000
19787 19789 1 0.13986 296436.400000
19789 19790 1 0.10860 301825.392000
19791 19792 1 0.10860 301825.392000
19792 19793 1 0.13986 296436.400000
19792 19801 1 0.13986 296436.400000
19793 19794 1 0.18850 35430.112000
19793 19795 1 0.13986 296436.400000
19795 19796 1 0.10860 301825.392000
19795 19797 1 0.13986 296436.400000
19797 19798 1 0.10860 301825.392000
19797 19799 1 0.13986 296436.400000
19799 19800 1 0.10860 301825.392000
19799 19801 1 0.13986 296436.400000
19801 19802 1 0.10860 301825.392000
19803 19804 1 0.10860 301825.392000
19804 19805 1 0.13986 296436.400000
19804 19813 1 0.13986 296436.400000
19805 19806 1 0.18850 35430.112000
19805 19807 1 0.13986 296436.400000
19807 19808 1 0.10860 301825.392000
19807 19809 1 0.13986 296436.400000
19809 19810 1 0.10860 301825.392000
19809 19811 1 0.13986 296436.400000
19811 19812 1 0.10860 301825.392000
19811 19813 1 0.13986 296436.400000
19813 19814 1 0.10860 301825.392000
19815 19816 1 0.10860 301825.392000
19816 19817 1 0.13986 296436.400000
19816 19825 1 0.13986 296436.400000
19817 19818 1 0.18850 35430.112000
19817 19819 1 0.13986 296436.400000
19819 19820 1 0.10860 301825.392000
19819 19821 1 0.13986 296436.400000
19821 19822 1 0.10860 301825.392000
19821 19823 1 0.13986 296436.400000
19823 19824 1 0.10860 301825.392000
19823 19825 1 0.13986 296436.400000
19825 19826 1 0.10860 301825.392000
19827 19828 1 0.10860 301825.392000
19828 19829 1 0.13986 296436.400000
19828 19837 1 0.13986 296436.400000
19829 19830 1 0.18850 35430.112000
19829 19831 1 0.13986 296436.400000
19831 19832 1 0.10860 301825.392000
19831 19833 1 0.13986 296436.400000
19833 19834 1 0.10860 301825.392000
19833 19835 1 0.13986 296436.400000
19835 19836 1 0.10860 301825.392000
19835 19837 1 0.13986 296436.400000
19837 19838 1 0.10860 301825.392000
19839 19840 1 0.10860 301825.392000
19840 19841 1 0.13986 296436.400000
19840 19849 1 0.13986 296436.400000
19841 19842 1 0.18850 35430.112000
19841 19843 1 0.13986 296436.400000
19843 19844 1 0.10860 301825.392000
19843 19845 1 0.13986 296436.400000
19845 19846 1 0.10860 301825.392000
19845 19847 1 0.13986 296436.400000
19847 19848 1 0.10860 301825.392000
19847 19849 1 0.13986 296436.400000
19849 19850 1 0.10860 301825.392000
19851 19852 1 0.10860 301825.392000
19852 19853 1 0.13986 296436.400000
19852 19861 1 0.13986 296436.400000
19853 19854 1 0.18850 35430.112000
19853 19855 1 0.13986 296436.400000
19855 19856 1 0.10860 301825.392000
19855 19857 1 0.13986 296436.400000
19857 19858 1 0.10860 301825.392000
19857 19859 1 0.13986 296436.400000
19859 19860 1 0.10860 301825.392000
19859 19861 1 0.13986 296436.400000
19861 19862 1 0.10860 301825.392000
19863 19864 1 0.10860 301825.392000
19864 19865 1 0.13986 296436.400000
19864 19873 1 0.13986 296436.400000
19865 19866 1 0.18850 35430.112000
19865 19867 1 0.13986 296436.400000
19867 19868 1 0.10860 301825.392000
19867 19869 1 0.13986 296436.400000
19869 19870 1 0.10860 301825.392000
19869 19871 1 0.13986 296436.400000
19871 19872 1 0.10860 301825.392000
19871 19873 1 0.13986 296436.400000
19873 19874 1 0.10860 301825.392000
19875 19876 1 0.10860 301825.392000
19876 19877 1 0.13986 296436.400000
19876 19885 1 0.13986 296436.400000
19877 19878 1 0.18850 35430.112000
19877 19879 1 0.13986 296436.400000
19879 19880 1 0.10860 301825.392000
19879 19881 1 0.13986 296436.400000
19881 19882 1 0.10860 301825.392000
19881 19883 1 0.13986 296436.400000
19883 19884 1 0.10860 301825.392000
19883 19885 1 0.13986 296436.400000
19885 19886 1 0.10860 301825.392000
19887 19888 1 0.10860 301825.392000
19888 19889 1 0.13986 296436.400000
19888 19897 1 0.13986 296436.400000
19889 19890 1 0.18850 35430.112000
19889 19891 1 0.13986 296436.400000
19891 19892 1 0.10860 301825.392000
19891 19893 1 0.13986 296436.400000
19893 19894 1 0.10860 301825.392000
19893 19895 1 0.13986 296436.400000
19895 19896 1 0.10860 301825.392000
19895 19897 1 0.13986 296436.400000
19897 19898 1 0.10860 301825.392000
19899 19900 1 0.10860 301825.392000
19900 19901 1 0.13986 296436.400000
19900 19909 1 0.13986 296436.400000
19901 19902 1 0.18850 35430.112000
19901 19903 1 0.13986 296436.400000
19903 19904 1 0.10860 301825.392000
19903 19905 1 0.13986 296436.400000
19905 19906 1 0.10860 301825.392000
19905 19907 1 0.13986 296436.400000
19907 19908 1 0.10860 301825.392000
19907 19909 1 0.13986 296436.400000
19909 19910 1 0.10860 301825.392000
19911 19912 1 0.10860 301825.392000
19912 19913 1 0.13986 296436.400000
19912 19921 1 0.13986 296436.400000
19913 19914 1 0.18850 35430.112000
19913 19915 1 0.13986 296436.400000
19915 19916 1 0.10860 301825.392000
19915 19917 1 0.13986 296436.400000
19917 19918 1 0.10860 301825.392000
19917 19919 1 0.13986 296436.400000
19919 19920 1 0.10860 301825.392000
19919 19921 1 0.13986 296436.400000
19921 19922 1 0.10860 301825.392000
19923 19924 1 0.10860 301825.392000
19924 19925 1 0.13986 296436.400000
19924 19933 1 0.13986 296436.400000
19925 19926 1 0.18850 35430.112000
19925 19927 1 0.13986 296436.400000
19927 19928 1 0.10860 301825.392000
19927 19929 1 0.13986 296436.400000
19929 19930 1 0.10860 301825.392000
19929 19931 1 0.13986 296436.400000
19931 19932 1 0.10860 301825.392000
19931 19933 1 0.13986 296436.400000
19933 19934 1 0.10860 301825.392000
19935 19936 1 0.10860 301825.392000
19936 19937 1 0.13986 296436.400000
19936 19945 1 0.13986 296436.400000
19937 19938 1 0.18850 35430.112000
19937 19939 1 0.13986 296436.400000
19939 19940 1 0.10860 301825.392000
19939 19941 1 0.13986 296436.400000
19941 19942 1 0.10860 301825.392000
19941 19943 1 0.13986 296436.400000
19943 19944 1 0.10860 301825.392000
19943 19945 1 0.13986 296436.400000
19945 19946 1 0.10860 301825.392000
19947 19948 1 0.10860 301825.392000
19948 19949 1 0.13986 296436.400000
19948 19957 1 0.13986 296436.400000
19949 19950 1 0.18850 35430.112000
19949 19951 1 0.13986 296436.400000
19951 19952 1 0.10860 301825.392000
19951 19953 1 0.13986 296436.400000
19953 19954 1 0.10860 301825.392000
19953 19955 1 0.13986 296436.400000
19955 19956 1 0.10860 301825.392000
19955 19957 1 0.13986 296436.400000
19957 19958 1 0.10860 301825.392000
19959 19960 1 0.10860 301825.392000
19960 19961 1 0.13986 296436.400000
19960 19969 1 0.13986 296436.400000
19961 19962 1 0.18850 35430.112000
19961 19963 1 0.13986 296436.400000
19963 19964 1 0.10860 301825.392000
19963 19965 1 0.13986 296436.400000
19965 19966 1 0.10860 301825.392000
19965 19967 1 0.13986 296436.400000
19967 19968 1 0.10860 301825.392000
19967 19969 1 0.13986 296436.400000
19969 19970 1 0.10860 301825.392000
19971 19972 1 0.10860 301825.392000
19972 19973 1 0.13986 296436.400000
19972 19981 1 0.13986 296436.400000
19973 19974 1 0.18850 35430.112000
19973 19975 1 0.13986 296436.400000
19975 19976 1 0.10860 301825.392000
19975 19977 1 0.13986 296436.400000
19977 19978 1 0.10860 301825.392000
19977 19979 1 0.13986 296436.400000
19979 19980 1 0.10860 301825.392000
19979 19981 1 0.13986 296436.400000
19981 19982 1 0.10860 301825.392000
19983 19984 1 0.10860 301825.392000
19984 19985 1 0.13986 296436.400000
19984 19993 1 0.13986 296436.400000
19985 19986 1 0.18850 35430.112000
19985 19987 1 0.13986 296436.400000
19987 19988 1 0.10860 301825.392000
19987 19989 1 0.13986 296436.400000
19989 19990 1 0.10860 301825.392000
19989 19991 1 0.13986 296436.400000
19991 19992 1 0.10860 301825.392000
19991 19993 1 0.13986 296436.400000
19993 19994 1 0.10860 301825.392000
19995 19996 1 0.10860 301825.392000
19996 19997 1 0.13986 296436.400000
19996 20005 1 0.13986 296436.400000
19997 19998 1 0.18850 35430.112000
19997 19999 1 0.13986 296436.400000
19999 20000 1 0.10860 301825.392000
19999 20001 1 0.13986 296436.400000
20001 20002 1 0.10860 301825.392000
20001 20003 1 0.13986 296436.400000
20003 20004 1 0.10860 301825.392000
20003 20005 1 0.13986 296436.400000
20005 20006 1 0.10860 301825.392000
20007 20008 1 0.10860 301825.392000
20008 20009 1 0.13986 296436.400000
20008 20017 1 0.13986 296436.400000
20009 20010 1 0.18850 35430.112000
20009 20011 1 0.13986 296436.400000
20011 20012 1 0.10860 301825.392000
20011 20013 1 0.13986 296436.400000
20013 20014 1 0.10860 301825.392000
20013 20015 1 0.13986 296436.400000
20015 20016 1 0.10860 301825.392000
20015 20017 1 0.13986 296436.400000
20017 20018 1 0.10860 301825.392000
20019 20020 1 0.10860 301825.392000
20020 20021 1 0.13986 296436.400000
20020 20029 1 0.13986 296436.400000
20021 20022 1 0.18850 35430.112000
20021 20023 1 0.13986 296436.400000
20023 20024 1 0.10860 301825.392000
20023 20025 1 0.13986 296436.400000
20025 20026 1 0.10860 301825.392000
20025 20027 1 0.13986 296436.400000
20027 20028 1 0.10860 301825.392000
20027 20029 1 0.13986 296436.400000
20029 20030 1 0.10860 301825.392000
20031 20032 1 0.10860 301825.392000
20032 20033 1 0.13986 296436.400000
20032 20041 1 0.13986 296436.400000
20033 20034 1 0.18850 35430.112000
20033 20035 1 0.13986 296436.400000
20035 20036 1 0.10860 301825.392000
20035 20037 1 0.13986 296436.400000
20037 20038 1 0.10860 301825.392000
20037 20039 1 0.13986 296436.400000
20039 20040 1 0.10860 301825.392000
20039 20041 1 0.13986 296436.400000
20041 20042 1 0.10860 301825.392000
20043 20044 1 0.10860 301825.392000
20044 20045 1 0.13986 296436.400000
20044 20053 1 0.13986 296436.400000
20045 20046 1 0.18850 35430.112000
20045 20047 1 0.13986 296436.400000
20047 20048 1 0.10860 301825.392000
20047 20049 1 0.13986 296436.400000
20049 20050 1 0.10860 301825.392000
20049 20051 1 0.13986 296436.400000
20051 20052 1 0.10860 301825.392000
20051 20053 1 0.13986 296436.400000
20053 20054 1 0.10860 301825.392000
20055 20056 1 0.10860 301825.392000
20056 20057 1 0.13986 296436.400000
20056 20065 1 0.13986 296436.400000
20057 20058 1 0.18850 35430.112000
20057 20059 1 0.13986 296436.400000
20059 20060 1 0.10860 301825.392000
20059 20061 1 0.13986 296436.400000
20061 20062 1 0.10860 301825.392000
20061 20063 1 0.13986 296436.400000
20063 20064 1 0.10860 301825.392000
20063 20065 1 0.13986 296436.400000
20065 20066 1 0.10860 301825.392000
20067 20068 1 0.10860 301825.392000
20068 20069 1 0.13986 296436.400000
20068 20077 1 0.13986 296436.400000
20069 20070 1 0.18850 35430.112000
20069 20071 1 0.13986 296436.400000
20071 20072 1 0.10860 301825.392000
20071 20073 1 0.13986 296436.400000
20073 20074 1 0.10860 301825.392000
20073 20075 1 0.13986 296436.400000
20075 20076 1 0.10860 301825.392000
20075 20077 1 0.13986 296436.400000
20077 20078 1 0.10860 301825.392000
20079 20080 1 0.10860 301825.392000
20080 20081 1 0.13986 296436.400000
20080 20089 1 0.13986 296436.400000
20081 20082 1 0.18850 35430.112000
20081 20083 1 0.13986 296436.400000
20083 20084 1 0.10860 301825.392000
20083 20085 1 0.13986 296436.400000
20085 20086 1 0.10860 301825.392000
20085 20087 1 0.13986 296436.400000
20087 20088 1 0.10860 301825.392000
20087 20089 1 0.13986 296436.400000
20089 20090 1 0.10860 301825.392000
20091 20092 1 0.10860 301825.392000
20092 20093 1 0.13986 296436.400000
20092 20101 1 0.13986 296436.400000
20093 20094 1 0.18850 35430.112000
20093 20095 1 0.13986 296436.400000
20095 20096 1 0.10860 301825.392000
20095 20097 1 0.13986 296436.400000
20097 20098 1 0.10860 301825.392000
20097 20099 1 0.13986 296436.400000
20099 20100 1 0.10860 301825.392000
20099 20101 1 0.13986 296436.400000
20101 20102 1 0.10860 301825.392000
20103 20104 1 0.10860 301825.392000
20104 20105 1 0.13986 296436.400000
20104 20113 1 0.13986 296436.400000
20105 20106 1 0.18850 35430.112000
20105 20107 1 0.13986 296436.400000
20107 20108 1 0.10860 301825.392000
20107 20109 1 0.13986 296436.400000
20109 20110 1 0.10860 301825.392000
20109 20111 1 0.13986 296436.400000
20111 20112 1 0.10860 301825.392000
20111 20113 1 0.13986 296436.400000
20113 20114 1 0.10860 301825.392000
20115 20116 1 0.10860 301825.392000
20116 20117 1 0.13986 296436.400000
20116 20125 1 0.13986 296436.400000
20117 20118 1 0.18850 35430.112000
20117 20119 1 0.13986 296436.400000
20119 20120 1 0.10860 301825.392000
20119 20121 1 0.13986 296436.400000
20121 20122 1 0.10860 301825.392000
20121 20123 1 0.13986 296436.400000
20123 20124 1 0.10860 301825.392000
20123 20125 1 0.13986 296436.400000
20125 20126 1 0.10860 301825.392000
20127 20128 1 0.10860 301825.392000
20128 20129 1 0.13986 296436.400000
20128 20137 1 0.13986 296436.400000
20129 20130 1 0.18850 35430.112000
20129 20131 1 0.13986 296436.400000
20131 20132 1 0.10860 301825.392000
20131 20133 1 0.13986 296436.400000
20133 20134 1 0.10860 301825.392000
20133 20135 1 0.13986 296436.400000
20135 20136 1 0.10860 301825.392000
20135 20137 1 0.13986 296436.400000
20137 20138 1 0.10860 301825.392000
20139 20140 1 0.10860 301825.392000
20140 20141 1 0.13986 296436.400000
20140 20149 1 0.13986 296436.400000
20141 20142 1 0.18850 35430.112000
20141 20143 1 0.13986 296436.400000
20143 20144 1 0.10860 301825.392000
20143 20145 1 0.13986 296436.400000
20145 20146 1 0.10860 301825.392000
20145 20147 1 0.13986 296436.400000
20147 20148 1 0.10860 301825.392000
20147 20149 1 0.13986 296436.400000
20149 20150 1 0.10860 301825.392000
20151 20152 1 0.10860 301825.392000
20152 20153 1 0.13986 296436.400000
20152 20161 1 0.13986 296436.400000
20153 20154 1 0.18850 35430.112000
20153 20155 1 0.13986 296436.400000
20155 20156 1 0.10860 301825.392000
20155 20157 1 0.13986 296436.400000
20157 20158 1 0.10860 301825.392000
20157 20159 1 0.13986 296436.400000
20159 20160 1 0.10860 301825.392000
20159 20161 1 0.13986 296436.400000
20161 20162 1 0.10860 301825.392000
20163 20164 1 0.10860 301825.392000
20164 20165 1 0.13986 296436.400000
20164 20173 1 0.13986 296436.400000
20165 20166 1 0.18850 35430.112000
20165 20167 1 0.13986 296436.400000
20167 20168 1 0.10860 301825.392000
20167 20169 1 0.13986 296436.400000
20169 20170 1 0.10860 301825.392000
20169 20171 1 0.13986 296436.400000
20171 20172 1 0.10860 301825.392000
20171 20173 1 0.13986 296436.400000
20173 20174 1 0.10860 301825.392000
20175 20176 1 0.10860 301825.392000
20176 20177 1 0.13986 296436.400000
20176 20185 1 0.13986 296436.400000
20177 20178 1 0.18850 35430.112000
20177 20179 1 0.13986 296436.400000
20179 20180 1 0.10860 301825.392000
20179 20181 1 0.13986 296436.400000
20181 20182 1 0.10860 301825.392000
20181 20183 1 0.13986 296436.400000
20183 20184 1 0.10860 301825.392000
20183 20185 1 0.13986 296436.400000
20185 20186 1 0.10860 301825.392000
20187 20188 1 0.10860 301825.392000
20188 20189 1 0.13986 296436.400000
20188 20197 1 0.13986 296436.400000
20189 20190 1 0.18850 35430.112000
20189 20191 1 0.13986 296436.400000
20191 20192 1 0.10860 301825.392000
20191 20193 1 0.13986 296436.400000
20193 20194 1 0.10860 301825.392000
20193 20195 1 0.13986 296436.400000
20195 20196 1 0.10860 301825.392000
20195 20197 1 0.13986 296436.400000
20197 20198 1 0.10860 301825.392000
20199 20200 1 0.10860 301825.392000
20200 20201 1 0.13986 296436.400000
20200 20209 1 0.13986 296436.400000
20201 20202 1 0.18850 35430.112000
20201 20203 1 0.13986 296436.400000
20203 20204 1 0.10860 301825.392000
20203 20205 1 0.13986 296436.400000
20205 20206 1 0.10860 301825.392000
20205 20207 1 0.13986 296436.400000
20207 20208 1 0.10860 301825.392000
20207 20209 1 0.13986 296436.400000
20209 20210 1 0.10860 301825.392000
20211 20212 1 0.10860 301825.392000
20212 20213 1 0.13986 296436.400000
20212 20221 1 0.13986 296436.400000
20213 20214 1 0.18850 35430.112000
20213 20215 1 0.13986 296436.400000
20215 20216 1 0.10860 301825.392000
20215 20217 1 0.13986 296436.400000
20217 20218 1 0.10860 301825.392000
20217 20219 1 0.13986 296436.400000
20219 20220 1 0.10860 301825.392000
20219 20221 1 0.13986 296436.400000
20221 20222 1 0.10860 301825.392000
20223 20224 1 0.10860 301825.392000
20224 20225 1 0.13986 296436.400000
20224 20233 1 0.13986 296436.400000
20225 20226 1 0.18850 35430.112000
20225 20227 1 0.13986 296436.400000
20227 20228 1 0.10860 301825.392000
20227 20229 1 0.13986 296436.400000
20229 20230 1 0.10860 301825.392000
20229 20231 1 0.13986 296436.400000
20231 20232 1 0.10860 301825.392000
20231 20233 1 0.13986 296436.400000
20233 20234 1 0.10860 301825.392000
20235 20236 1 0.10860 301825.392000
20236 20237 1 0.13986 296436.400000
20236 20245 1 0.13986 296436.400000
20237 20238 1 0.18850 35430.112000
20237 20239 1 0.13986 296436.400000
20239 20240 1 0.10860 301825.392000
20239 20241 1 0.13986 296436.400000
20241 20242 1 0.10860 301825.392000
20241 20243 1 0.13986 296436.400000
20243 20244 1 0.10860 301825.392000
20243 20245 1 0.13986 296436.400000
20245 20246 1 0.10860 301825.392000
20247 20248 1 0.10860 301825.392000
20248 20249 1 0.13986 296436.400000
20248 20257 1 0.13986 296436.400000
20249 20250 1 0.18850 35430.112000
20249 20251 1 0.13986 296436.400000
20251 20252 1 0.10860 301825.392000
20251 20253 1 0.13986 296436.400000
20253 20254 1 0.10860 301825.392000
20253 20255 1 0.13986 296436.400000
20255 20256 1 0.10860 301825.392000
20255 20257 1 0.13986 296436.400000
20257 20258 1 0.10860 301825.392000
20259 20260 1 0.10860 301825.392000
20260 20261 1 0.13986 296436.400000
20260 20269 1 0.13986 296436.400000
20261 20262 1 0.18850 35430.112000
20261 20263 1 0.13986 296436.400000
20263 20264 1 0.10860 301825.392000
20263 20265 1 0.13986 296436.400000
20265 20266 1 0.10860 301825.392000
20265 20267 1 0.13986 296436.400000
20267 20268 1 0.10860 301825.392000
20267 20269 1 0.13986 296436.400000
20269 20270 1 0.10860 301825.392000
20271 20272 1 0.10860 301825.392000
20272 20273 1 0.13986 296436.400000
20272 20281 1 0.13986 296436.400000
20273 20274 1 0.18850 35430.112000
20273 20275 1 0.13986 296436.400000
20275 20276 1 0.10860 301825.392000
20275 20277 1 0.13986 296436.400000
20277 20278 1 0.10860 301825.392000
20277 20279 1 0.13986 296436.400000
20279 20280 1 0.10860 301825.392000
20279 20281 1 0.13986 296436.400000
20281 20282 1 0.10860 301825.392000
20283 20284 1 0.10860 301825.392000
20284 20285 1 0.13986 296436.400000
20284 20293 1 0.13986 296436.400000
20285 20286 1 0.18850 35430.112000
20285 20287 1 0.13986 296436.400000
20287 20288 1 0.10860 301825.392000
20287 20289 1 0.13986 296436.400000
20289 20290 1 0.10860 301825.392000
20289 20291 1 0.13986 296436.400000
20291 20292 1 0.10860 301825.392000
20291 20293 1 0.13986 296436.400000
20293 20294 1 0.10860 301825.392000
20295 20296 1 0.10860 301825.392000
20296 20297 1 0.13986 296436.400000
20296 20305 1 0.13986 296436.400000
20297 20298 1 0.18850 35430.112000
20297 20299 1 0.13986 296436.400000
20299 20300 1 0.10860 301825.392000
20299 20301 1 0.13986 296436.400000
20301 20302 1 0.10860 301825.392000
20301 20303 1 0.13986 296436.400000
20303 20304 1 0.10860 301825.392000
20303 20305 1 0.13986 296436.400000
20305 20306 1 0.10860 301825.392000
20307 20308 1 0.10860 301825.392000
20308 20309 1 0.13986 296436.400000
20308 20317 1 0.13986 296436.400000
20309 20310 1 0.18850 35430.112000
20309 20311 1 0.13986 296436.400000
20311 20312 1 0.10860 301825.392000
20311 20313 1 0.13986 296436.400000
20313 20314 1 0.10860 301825.392000
20313 20315 1 0.13986 296436.400000
20315 20316 1 0.10860 301825.392000
20315 20317 1 0.13986 296436.400000
20317 20318 1 0.10860 301825.392000
20319 20320 1 0.10860 301825.392000
20320 20321 1 0.13986 296436.400000
20320 20329 1 0.13986 296436.400000
20321 20322 1 0.18850 35430.112000
20321 20323 1 0.13986 296436.400000
20323 20324 1 0.10860 301825.392000
20323 20325 1 0.13986 296436.400000
20325 20326 1 0.10860 301825.392000
20325 20327 1 0.13986 296436.400000
20327 20328 1 0.10860 301825.392000
20327 20329 1 0.13986 296436.400000
20329 20330 1 0.10860 301825.392000
20331 20332 1 0.10860 301825.392000
20332 20333 1 0.13986 296436.400000
20332 20341 1 0.13986 296436.400000
20333 20334 1 0.18850 35430.112000
20333 20335 1 0.13986 296436.400000
20335 20336 1 0.10860 301825.392000
20335 20337 1 0.13986 296436.400000
20337 20338 1 0.10860 301825.392000
20337 20339 1 0.13986 296436.400000
20339 20340 1 0.10860 301825.392000
20339 20341 1 0.13986 296436.400000
20341 20342 1 0.10860 301825.392000
20343 20344 1 0.10860 301825.392000
20344 20345 1 0.13986 296436.400000
20344 20353 1 0.13986 296436.400000
20345 20346 1 0.18850 35430.112000
20345 20347 1 0.13986 296436.400000
20347 20348 1 0.10860 301825.392000
20347 20349 1 0.13986 296436.400000
20349 20350 1 0.10860 301825.392000
20349 20351 1 0.13986 296436.400000
20351 20352 1 0.10860 301825.392000
20351 20353 1 0.13986 296436.400000
20353 20354 1 0.10860 301825.392000
20355 20356 1 0.10860 301825.392000
20356 20357 1 0.13986 296436.400000
20356 20365 1 0.13986 296436.400000
20357 20358 1 0.18850 35430.112000
20357 20359 1 0.13986 296436.400000
20359 20360 1 0.10860 301825.392000
20359 20361 1 0.13986 296436.400000
20361 20362 1 0.10860 301825.392000
20361 20363 1 0.13986 296436.400000
20363 20364 1 0.10860 301825.392000
20363 20365 1 0.13986 296436.400000
20365 20366 1 0.10860 301825.392000
20367 20368 1 0.10860 301825.392000
20368 20369 1 0.13986 296436.400000
20368 20377 1 0.13986 296436.400000
20369 20370 1 0.18850 35430.112000
20369 20371 1 0.13986 296436.400000
20371 20372 1 0.10860 301825.392000
20371 20373 1 0.13986 296436.400000
20373 20374 1 0.10860 301825.392000
20373 20375 1 0.13986 296436.400000
20375 20376 1 0.10860 301825.392000
20375 20377 1 0.13986 296436.400000
20377 20378 1 0.10860 301825.392000
20379 20380 1 0.10860 301825.392000
20380 20381 1 0.13986 296436.400000
20380 20389 1 0.13986 296436.400000
20381 20382 1 0.18850 35430.112000
20381 20383 1 0.13986 296436.400000
20383 20384 1 0.10860 301825.392000
20383 20385 1 0.13986 296436.400000
20385 20386 1 0.10860 301825.392000
20385 20387 1 0.13986 296436.400000
20387 20388 1 0.10860 301825.392000
20387 20389 1 0.13986 296436.400000
20389 20390 1 0.10860 301825.392000
20391 20392 1 0.10860 301825.392000
20392 20393 1 0.13986 296436.400000
20392 20401 1 0.13986 296436.400000
20393 20394 1 0.18850 35430.112000
20393 20395 1 0.13986 296436.400000
20395 20396 1 0.10860 301825.392000
20395 20397 1 0.13986 296436.400000
20397 20398 1 0.10860 301825.392000
20397 20399 1 0.13986 296436.400000
20399 20400 1 0.10860 301825.392000
20399 20401 1 0.13986 296436.400000
20401 20402 1 0.10860 301825.392000
20403 20404 1 0.10860 301825.392000
20404 20405 1 0.13986 296436.400000
20404 20413 1 0.13986 296436.400000
20405 20406 1 0.18850 35430.112000
20405 20407 1 0.13986 296436.400000
20407 20408 1 0.10860 301825.392000
20407 20409 1 0.13986 296436.400000
20409 20410 1 0.10860 301825.392000
20409 20411 1 0.13986 296436.400000
20411 20412 1 0.10860 301825.392000
20411 20413 1 0.13986 296436.400000
20413 20414 1 0.10860 301825.392000
20415 20416 1 0.10860 301825.392000
20416 20417 1 0.13986 296436.400000
20416 20425 1 0.13986 296436.400000
20417 20418 1 0.18850 35430.112000
20417 20419 1 0.13986 296436.400000
20419 20420 1 0.10860 301825.392000
20419 20421 1 0.13986 296436.400000
20421 20422 1 0.10860 301825.392000
20421 20423 1 0.13986 296436.400000
20423 20424 1 0.10860 301825.392000
20423 20425 1 0.13986 296436.400000
20425 20426 1 0.10860 301825.392000
20427 20428 1 0.10860 301825.392000
20428 20429 1 0.13986 296436.400000
20428 20437 1 0.13986 296436.400000
20429 20430 1 0.18850 35430.112000
20429 20431 1 0.13986 296436.400000
20431 20432 1 0.10860 301825.392000
20431 20433 1 0.13986 296436.400000
20433 20434 1 0.10860 301825.392000
20433 20435 1 0.13986 296436.400000
20435 20436 1 0.10860 301825.392000
20435 20437 1 0.13986 296436.400000
20437 20438 1 0.10860 301825.392000
20439 20440 1 0.10860 301825.392000
20440 20441 1 0.13986 296436.400000
20440 20449 1 0.13986 296436.400000
20441 20442 1 0.18850 35430.112000
20441 20443 1 0.13986 296436.400000
20443 20444 1 0.10860 301825.392000
20443 20445 1 0.13986 296436.400000
20445 20446 1 0.10860 301825.392000
20445 20447 1 0.13986 296436.400000
20447 20448 1 0.10860 301825.392000
20447 20449 1 0.13986 296436.400000
20449 20450 1 0.10860 301825.392000
20451 20452 1 0.10860 301825.392000
20452 20453 1 0.13986 296436.400000
20452 20461 1 0.13986 296436.400000
20453 20454 1 0.18850 35430.112000
20453 20455 1 0.13986 296436.400000
20455 20456 1 0.10860 301825.392000
20455 20457 1 0.13986 296436.400000
20457 20458 1 0.10860 301825.392000
20457 20459 1 0.13986 296436.400000
20459 20460 1 0.10860 301825.392000
20459 20461 1 0.13986 296436.400000
20461 20462 1 0.10860 301825.392000
20463 20464 1 0.10860 301825.392000
20464 20465 1 0.13986 296436.400000
20464 20473 1 0.13986 296436.400000
20465 20466 1 0.18850 35430.112000
20465 20467 1 0.13986 296436.400000
20467 20468 1 0.10860 301825.392000
20467 20469 1 0.13986 296436.400000
20469 20470 1 0.10860 301825.392000
20469 20471 1 0.13986 296436.400000
20471 20472 1 0.10860 301825.392000
20471 20473 1 0.13986 296436.400000
20473 20474 1 0.10860 301825.392000
20475 20476 1 0.10860 301825.392000
20476 20477 1 0.13986 296436.400000
20476 20485 1 0.13986 296436.400000
20477 20478 1 0.18850 35430.112000
20477 20479 1 0.13986 296436.400000
20479 20480 1 0.10860 301825.392000
20479 20481 1 0.13986 296436.400000
20481 20482 1 0.10860 301825.392000
20481 20483 1 0.13986 296436.400000
20483 20484 1 0.10860 301825.392000
20483 20485 1 0.13986 296436.400000
20485 20486 1 0.10860 301825.392000
20487 20488 1 0.10860 301825.392000
20488 20489 1 0.13986 296436.400000
20488 20497 1 0.13986 296436.400000
20489 20490 1 0.18850 35430.112000
20489 20491 1 0.13986 296436.400000
20491 20492 1 0.10860 301825.392000
20491 20493 1 0.13986 296436.400000
20493 20494 1 0.10860 301825.392000
20493 20495 1 0.13986 296436.400000
20495 20496 1 0.10860 301825.392000
20495 20497 1 0.13986 296436.400000
20497 20498 1 0.10860 301825.392000
20499 20500 1 0.10860 301825.392000
20500 20501 1 0.13986 296436.400000
20500 20509 1 0.13986 296436.400000
20501 20502 1 0.18850 35430.112000
20501 20503 1 0.13986 296436.400000
20503 20504 1 0.10860 301825.392000
20503 20505 1 0.13986 296436.400000
20505 20506 1 0.10860 301825.392000
20505 20507 1 0.13986 296436.400000
20507 20508 1 0.10860 301825.392000
20507 20509 1 0.13986 296436.400000
20509 20510 1 0.10860 301825.392000
20511 20512 1 0.10860 301825.392000
20512 20513 1 0.13986 296436.400000
20512 20521 1 0.13986 296436.400000
20513 20514 1 0.18850 35430.112000
20513 20515 1 0.13986 296436.400000
20515 20516 1 0.10860 301825.392000
20515 20517 1 0.13986 296436.400000
20517 20518 1 0.10860 301825.392000
20517 20519 1 0.13986 296436.400000
20519 20520 1 0.10860 301825.392000
20519 20521 1 0.13986 296436.400000
20521 20522 1 0.10860 301825.392000
20523 20524 1 0.10860 301825.392000
20524 20525 1 0.13986 296436.400000
20524 20533 1 0.13986 296436.400000
20525 20526 1 0.18850 35430.112000
20525 20527 1 0.13986 296436.400000
20527 20528 1 0.10860 301825.392000
20527 20529 1 0.13986 296436.400000
20529 20530 1 0.10860 301825.392000
20529 20531 1 0.13986 296436.400000
20531 20532 1 0.10860 301825.392000
20531 20533 1 0.13986 296436.400000
20533 20534 1 0.10860 301825.392000
20535 20536 1 0.10860 301825.392000
20536 20537 1 0.13986 296436.400000
20536 20545 1 0.13986 296436.400000
20537 20538 1 0.18850 35430.112000
20537 20539 1 0.13986 296436.400000
20539 20540 1 0.10860 301825.392000
20539 20541 1 0.13986 296436.400000
20541 20542 1 0.10860 301825.392000
20541 20543 1 0.13986 296436.400000
20543 20544 1 0.10860 301825.392000
20543 20545 1 0.13986 296436.400000
20545 20546 1 0.10860 301825.392000
20547 20548 1 0.10860 301825.392000
20548 20549 1 0.13986 296436.400000
20548 20557 1 0.13986 296436.400000
20549 20550 1 0.18850 35430.112000
20549 20551 1 0.13986 296436.400000
20551 20552 1 0.10860 301825.392000
20551 20553 1 0.13986 296436.400000
20553 20554 1 0.10860 301825.392000
20553 20555 1 0.13986 296436.400000
20555 20556 1 0.10860 301825.392000
20555 20557 1 0.13986 296436.400000
20557 20558 1 0.10860 301825.392000
20559 20560 1 0.10860 301825.392000
20560 20561 1 0.13986 296436.400000
20560 20569 1 0.13986 296436.400000
20561 20562 1 0.18850 35430.112000
20561 20563 1 0.13986 296436.400000
20563 20564 1 0.10860 301825.392000
20563 20565 1 0.13986 296436.400000
20565 20566 1 0.10860 301825.392000
20565 20567 1 0.13986 296436.400000
20567 20568 1 0.10860 301825.392000
20567 20569 1 0.13986 296436.400000
20569 20570 1 0.10860 301825.392000
20571 20572 1 0.10860 301825.392000
20572 20573 1 0.13986 296436.400000
20572 20581 1 0.13986 296436.400000
20573 20574 1 0.18850 35430.112000
20573 20575 1 0.13986 296436.400000
20575 20576 1 0.10860 301825.392000
20575 20577 1 0.13986 296436.400000
20577 20578 1 0.10860 301825.392000
20577 20579 1 0.13986 296436.400000
20579 20580 1 0.10860 301825.392000
20579 20581 1 0.13986 296436.400000
20581 20582 1 0.10860 301825.392000
20583 20584 1 0.10860 301825.392000
20584 20585 1 0.13986 296436.400000
20584 20593 1 0.13986 296436.400000
20585 20586 1 0.18850 35430.112000
20585 20587 1 0.13986 296436.400000
20587 20588 1 0.10860 301825.392000
20587 20589 1 0.13986 296436.400000
20589 20590 1 0.10860 301825.392000
20589 20591 1 0.13986 296436.400000
20591 20592 1 0.10860 301825.392000
20591 20593 1 0.13986 296436.400000
20593 20594 1 0.10860 301825.392000
20595 20596 1 0.10860 301825.392000
20596 20597 1 0.13986 296436.400000
20596 20605 1 0.13986 296436.400000
20597 20598 1 0.18850 35430.112000
20597 20599 1 0.13986 296436.400000
20599 20600 1 0.10860 301825.392000
20599 20601 1 0.13986 296436.400000
20601 20602 1 0.10860 301825.392000
20601 20603 1 0.13986 296436.400000
20603 20604 1 0.10860 301825.392000
20603 20605 1 0.13986 296436.400000
20605 20606 1 0.10860 301825.392000
20607 20608 1 0.10860 301825.392000
20608 20609 1 0.13986 296436.400000
20608 20617 1 0.13986 296436.400000
20609 20610 1 0.18850 35430.112000
20609 20611 1 0.13986 296436.400000
20611 20612 1 0.10860 301825.392000
20611 20613 1 0.13986 296436.400000
20613 20614 1 0.10860 301825.392000
20613 20615 1 0.13986 296436.400000
20615 20616 1 0.10860 301825.392000
20615 20617 1 0.13986 296436.400000
20617 20618 1 0.10860 301825.392000
20619 20620 1 0.10860 301825.392000
20620 20621 1 0.13986 296436.400000
20620 20629 1 0.13986 296436.400000
20621 20622 1 0.18850 35430.112000
20621 20623 1 0.13986 296436.400000
20623 20624 1 0.10860 301825.392000
20623 20625 1 0.13986 296436.400000
20625 20626 1 0.10860 301825.392000
20625 20627 1 0.13986 296436.400000
20627 20628 1 0.10860 301825.392000
20627 20629 1 0.13986 296436.400000
20629 20630 1 0.10860 301825.392000
20631 20632 1 0.10860 301825.392000
20632 20633 1 0.13986 296436.400000
20632 20641 1 0.13986 296436.400000
20633 20634 1 0.18850 35430.112000
20633 20635 1 0.13986 296436.400000
20635 20636 1 0.10860 301825.392000
20635 20637 1 0.13986 296436.400000
20637 20638 1 0.10860 301825.392000
20637 20639 1 0.13986 296436.400000
20639 20640 1 0.10860 301825.392000
20639 20641 1 0.13986 296436.400000
20641 20642 1 0.10860 301825.392000
20643 20644 1 0.10860 301825.392000
20644 20645 1 0.13986 296436.400000
20644 20653 1 0.13986 296436.400000
20645 20646 1 0.18850 35430.112000
20645 20647 1 0.13986 296436.400000
20647 20648 1 0.10860 301825.392000
20647 20649 1 0.13986 296436.400000
20649 20650 1 0.10860 301825.392000
20649 20651 1 0.13986 296436.400000
20651 20652 1 0.10860 301825.392000
20651 20653 1 0.13986 296436.400000
20653 20654 1 0.10860 301825.392000
20655 20656 1 0.10860 301825.392000
20656 20657 1 0.13986 296436.400000
20656 20665 1 0.13986 296436.400000
20657 20658 1 0.18850 35430.112000
20657 20659 1 0.13986 296436.400000
20659 20660 1 0.10860 301825.392000
20659 20661 1 0.13986 296436.400000
20661 20662 1 0.10860 301825.392000
20661 20663 1 0.13986 296436.400000
20663 20664 1 0.10860 301825.392000
20663 20665 1 0.13986 296436.400000
20665 20666 1 0.10860 301825.392000
20667 20668 1 0.10860 301825.392000
20668 20669 1 0.13986 296436.400000
20668 20677 1 0.13986 296436.400000
20669 20670 1 0.18850 35430.112000
20669 20671 1 0.13986 296436.400000
20671 20672 1 0.10860 301825.392000
20671 20673 1 0.13986 296436.400000
20673 20674 1 0.10860 301825.392000
20673 20675 1 0.13986 296436.400000
20675 20676 1 0.10860 301825.392000
20675 20677 1 0.13986 296436.400000
20677 20678 1 0.10860 301825.392000
20679 20680 1 0.10860 301825.392000
20680 20681 1 0.13986 296436.400000
20680 20689 1 0.13986 296436.400000
20681 20682 1 0.18850 35430.112000
20681 20683 1 0.13986 296436.400000
20683 20684 1 0.10860 301825.392000
20683 20685 1 0.13986 296436.400000
20685 20686 1 0.10860 301825.392000
20685 20687 1 0.13986 296436.400000
20687 20688 1 0.10860 301825.392000
20687 20689 1 0.13986 296436.400000
20689 20690 1 0.10860 301825.392000
20691 20692 1 0.10860 301825.392000
20692 20693 1 0.13986 296436.400000
20692 20701 1 0.13986 296436.400000
20693 20694 1 0.18850 35430.112000
20693 20695 1 0.13986 296436.400000
20695 20696 1 0.10860 301825.392000
20695 20697 1 0.13986 296436.400000
20697 20698 1 0.10860 301825.392000
20697 20699 1 0.13986 296436.400000
20699 20700 1 0.10860 301825.392000
20699 20701 1 0.13986 296436.400000
20701 20702 1 0.10860 301825.392000
20703 20704 1 0.10860 301825.392000
20704 20705 1 0.13986 296436.400000
20704 20713 1 0.13986 296436.400000
20705 20706 1 0.18850 35430.112000
20705 20707 1 0.13986 296436.400000
20707 20708 1 0.10860 301825.392000
20707 20709 1 0.13986 296436.400000
20709 20710 1 0.10860 301825.392000
20709 20711 1 0.13986 296436.400000
20711 20712 1 0.10860 301825.392000
20711 20713 1 0.13986 296436.400000
20713 20714 1 0.10860 301825.392000
20715 20716 1 0.10860 301825.392000
20716 20717 1 0.13986 296436.400000
20716 20725 1 0.13986 296436.400000
20717 20718 1 0.18850 35430.112000
20717 20719 1 0.13986 296436.400000
20719 20720 1 0.10860 301825.392000
20719 20721 1 0.13986 296436.400000
20721 20722 1 0.10860 301825.392000
20721 20723 1 0.13986 296436.400000
20723 20724 1 0.10860 301825.392000
20723 20725 1 0.13986 296436.400000
20725 20726 1 0.10860 301825.392000
20727 20728 1 0.10860 301825.392000
20728 20729 1 0.13986 296436.400000
20728 20737 1 0.13986 296436.400000
20729 20730 1 0.18850 35430.112000
20729 20731 1 0.13986 296436.400000
20731 20732 1 0.10860 301825.392000
20731 20733 1 0.13986 296436.400000
20733 20734 1 0.10860 301825.392000
20733 20735 1 0.13986 296436.400000
20735 20736 1 0.10860 301825.392000
20735 20737 1 0.13986 296436.400000
20737 20738 1 0.10860 301825.392000
20739 20740 1 0.10860 301825.392000
20740 20741 1 0.13986 296436.400000
20740 20749 1 0.13986 296436.400000
20741 20742 1 0.18850 35430.112000
20741 20743 1 0.13986 296436.400000
20743 20744 1 0.10860 301825.392000
20743 20745 1 0.13986 296436.400000
20745 20746 1 0.10860 301825.392000
20745 20747 1 0.13986 296436.400000
20747 20748 1 0.10860 301825.392000
20747 20749 1 0.13986 296436.400000
20749 20750 1 0.10860 301825.392000
20751 20752 1 0.10860 301825.392000
20752 20753 1 0.13986 296436.400000
20752 20761 1 0.13986 296436.400000
20753 20754 1 0.18850 35430.112000
20753 20755 1 0.13986 296436.400000
20755 20756 1 0.10860 301825.392000
20755 20757 1 0.13986 296436.400000
20757 20758 1 0.10860 301825.392000
20757 20759 1 0.13986 296436.400000
20759 20760 1 0.10860 301825.392000
20759 20761 1 0.13986 296436.400000
20761 20762 1 0.10860 301825.392000
20763 20764 1 0.10860 301825.392000
20764 20765 1 0.13986 296436.400000
20764 20773 1 0.13986 296436.400000
20765 20766 1 0.18850 35430.112000
20765 20767 1 0.13986 296436.400000
20767 20768 1 0.10860 301825.392000
20767 20769 1 0.13986 296436.400000
20769 20770 1 0.10860 301825.392000
20769 20771 1 0.13986 296436.400000
20771 20772 1 0.10860 301825.392000
20771 20773 1 0.13986 296436.400000
20773 20774 1 0.10860 301825.392000
20775 20776 1 0.10860 301825.392000
20776 20777 1 0.13986 296436.400000
20776 20785 1 0.13986 296436.400000
20777 20778 1 0.18850 35430.112000
20777 20779 1 0.13986 296436.400000
20779 20780 1 0.10860 301825.392000
20779 20781 1 0.13986 296436.400000
20781 20782 1 0.10860 301825.392000
20781 20783 1 0.13986 296436.400000
20783 20784 1 0.10860 301825.392000
20783 20785 1 0.13986 296436.400000
20785 20786 1 0.10860 301825.392000
20787 20788 1 0.10860 301825.392000
20788 20789 1 0.13986 296436.400000
20788 20797 1 0.13986 296436.400000
20789 20790 1 0.18850 35430.112000
20789 20791 1 0.13986 296436.400000
20791 20792 1 0.10860 301825.392000
20791 20793 1 0.13986 296436.400000
20793 20794 1 0.10860 301825.392000
20793 20795 1 0.13986 296436.400000
20795 20796 1 0.10860 301825.392000
20795 20797 1 0.13986 296436.400000
20797 20798 1 0.10860 301825.392000
20799 20800 1 0.10860 301825.392000
20800 20801 1 0.13986 296436.400000
20800 20809 1 0.13986 296436.400000
20801 20802 1 0.18850 35430.112000
20801 20803 1 0.13986 296436.400000
20803 20804 1 0.10860 301825.392000
20803 20805 1 0.13986 296436.400000
20805 20806 1 0.10860 301825.392000
20805 20807 1 0.13986 296436.400000
20807 20808 1 0.10860 301825.392000
20807 20809 1 0.13986 296436.400000
20809 20810 1 0.10860 301825.392000
20811 20812 1 0.10860 301825.392000
20812 20813 1 0.13986 296436.400000
20812 20821 1 0.13986 296436.400000
20813 20814 1 0.18850 35430.112000
20813 20815 1 0.13986 296436.400000
20815 20816 1 0.10860 301825.392000
20815 20817 1 0.13986 296436.400000
20817 20818 1 0.10860 301825.392000
20817 20819 1 0.13986 296436.400000
20819 20820 1 0.10860 301825.392000
20819 20821 1 0.13986 296436.400000
20821 20822 1 0.10860 301825.392000
20823 20824 1 0.10860 301825.392000
20824 20825 1 0.13986 296436.400000
20824 20833 1 0.13986 296436.400000
20825 20826 1 0.18850 35430.112000
20825 20827 1 0.13986 296436.400000
20827 20828 1 0.10860 301825.392000
20827 20829 1 0.13986 296436.400000
20829 20830 1 0.10860 301825.392000
20829 20831 1 0.13986 296436.400000
20831 20832 1 0.10860 301825.392000
20831 20833 1 0.13986 296436.400000
20833 20834 1 0.10860 301825.392000
20835 20836 1 0.10860 301825.392000
20836 20837 1 0.13986 296436.400000
20836 20845 1 0.13986 296436.400000
20837 20838 1 0.18850 35430.112000
20837 20839 1 0.13986 296436.400000
20839 20840 1 0.10860 301825.392000
20839 20841 1 0.13986 296436.400000
20841 20842 1 0.10860 301825.392000
20841 20843 1 0.13986 296436.400000
20843 20844 1 0.10860 301825.392000
20843 20845 1 0.13986 296436.400000
20845 20846 1 0.10860 301825.392000
20847 20848 1 0.10860 301825.392000
20848 20849 1 0.13986 296436.400000
20848 20857 1 0.13986 296436.400000
20849 20850 1 0.18850 35430.112000
20849 20851 1 0.13986 296436.400000
20851 20852 1 0.10860 301825.392000
20851 20853 1 0.13986 296436.400000
20853 20854 1 0.10860 301825.392000
20853 20855 1 0.13986 296436.400000
20855 20856 1 0.10860 301825.392000
20855 20857 1 0.13986 296436.400000
20857 20858 1 0.10860 301825.392000
20859 20860 1 0.10860 301825.392000
20860 20861 1 0.13986 296436.400000
20860 20869 1 0.13986 296436.400000
20861 20862 1 0.18850 35430.112000
20861 20863 1 0.13986 296436.400000
20863 20864 1 0.10860 301825.392000
20863 20865 1 0.13986 296436.400000
20865 20866 1 0.10860 301825.392000
20865 20867 1 0.13986 296436.400000
20867 20868 1 0.10860 301825.392000
20867 20869 1 0.13986 296436.400000
20869 20870 1 0.10860 301825.392000
20871 20872 1 0.10860 301825.392000
20872 20873 1 0.13986 296436.400000
20872 20881 1 0.13986 296436.400000
20873 20874 1 0.18850 35430.112000
20873 20875 1 0.13986 296436.400000
20875 20876 1 0.10860 301825.392000
20875 20877 1 0.13986 296436.400000
20877 20878 1 0.10860 301825.392000
20877 20879 1 0.13986 296436.400000
20879 20880 1 0.10860 301825.392000
20879 20881 1 0.13986 296436.400000
20881 20882 1 0.10860 301825.392000
20883 20884 1 0.10860 301825.392000
20884 20885 1 0.13986 296436.400000
20884 20893 1 0.13986 296436.400000
20885 20886 1 0.18850 35430.112000
20885 20887 1 0.13986 296436.400000
20887 20888 1 0.10860 301825.392000
20887 20889 1 0.13986 296436.400000
20889 20890 1 0.10860 301825.392000
20889 20891 1 0.13986 296436.400000
20891 20892 1 0.10860 301825.392000
20891 20893 1 0.13986 296436.400000
20893 20894 1 0.10860 301825.392000
20895 20896 1 0.10860 301825.392000
20896 20897 1 0.13986 296436.400000
20896 20905 1 0.13986 296436.400000
20897 20898 1 0.18850 35430.112000
20897 20899 1 0.13986 296436.400000
20899 20900 1 0.10860 301825.392000
20899 20901 1 0.13986 296436.400000
20901 20902 1 0.10860 301825.392000
20901 20903 1 0.13986 296436.400000
20903 20904 1 0.10860 301825.392000
20903 20905 1 0.13986 296436.400000
20905 20906 1 0.10860 301825.392000
20907 20908 1 0.10860 301825.392000
20908 20909 1 0.13986 296436.400000
20908 20917 1 0.13986 296436.400000
20909 20910 1 0.18850 35430.112000
20909 20911 1 0.13986 296436.400000
20911 20912 1 0.10860 301825.392000
20911 20913 1 0.13986 296436.400000
20913 20914 1 0.10860 301825.392000
20913 20915 1 0.13986 296436.400000
20915 20916 1 0.10860 301825.392000
20915 20917 1 0.13986 296436.400000
20917 20918 1 0.10860 301825.392000
20919 20920 1 0.10860 301825.392000
20920 20921 1 0.13986 296436.400000
20920 20929 1 0.13986 296436.400000
20921 20922 1 0.18850 35430.112000
20921 20923 1 0.13986 296436.400000
20923 20924 1 0.10860 301825.392000
20923 20925 1 0.13986 296436.400000
20925 20926 1 0.10860 301825.392000
20925 20927 1 0.13986 296436.400000
20927 20928 1 0.10860 301825.392000
20927 20929 1 0.13986 296436.400000
20929 20930 1 0.10860 301825.392000
20931 20932 1 0.10860 301825.392000
20932 20933 1 0.13986 296436.400000
20932 20941 1 0.13986 296436.400000
20933 20934 1 0.18850 35430.112000
20933 20935 1 0.13986 296436.400000
20935 20936 1 0.10860 301825.392000
20935 20937 1 0.13986 296436.400000
20937 20938 1 0.10860 301825.392000
20937 20939 1 0.13986 296436.400000
20939 20940 1 0.10860 301825.392000
20939 20941 1 0.13986 296436.400000
20941 20942 1 0.10860 301825.392000
20943 20944 1 0.10860 301825.392000
20944 20945 1 0.13986 296436.400000
20944 20953 1 0.13986 296436.400000
20945 20946 1 0.18850 35430.112000
20945 20947 1 0.13986 296436.400000
20947 20948 1 0.10860 301825.392000
20947 20949 1 0.13986 296436.400000
20949 20950 1 0.10860 301825.392000
20949 20951 1 0.13986 296436.400000
20951 20952 1 0.10860 301825.392000
20951 20953 1 0.13986 296436.400000
20953 20954 1 0.10860 301825.392000
20955 20956 1 0.10860 301825.392000
20956 20957 1 0.13986 296436.400000
20956 20965 1 0.13986 296436.400000
20957 20958 1 0.18850 35430.112000
20957 20959 1 0.13986 296436.400000
20959 20960 1 0.10860 301825.392000
20959 20961 1 0.13986 296436.400000
20961 20962 1 0.10860 301825.392000
20961 20963 1 0.13986 296436.400000
20963 20964 1 0.10860 301825.392000
20963 20965 1 0.13986 296436.400000
20965 20966 1 0.10860 301825.392000
20967 20968 1 0.10860 301825.392000
20968 20969 1 0.13986 296436.400000
20968 20977 1 0.13986 296436.400000
20969 20970 1 0.18850 35430.112000
20969 20971 1 0.13986 296436.400000
20971 20972 1 0.10860 301825.392000
20971 20973 1 0.13986 296436.400000
20973 20974 1 0.10860 301825.392000
20973 20975 1 0.13986 296436.400000
20975 20976 1 0.10860 301825.392000
20975 20977 1 0.13986 296436.400000
20977 20978 1 0.10860 301825.392000
20979 20980 1 0.10860 301825.392000
20980 20981 1 0.13986 296436.400000
20980 20989 1 0.13986 296436.400000
20981 20982 1 0.18850 35430.112000
20981 20983 1 0.13986 296436.400000
20983 20984 1 0.10860 301825.392000
20983 20985 1 0.13986 296436.400000
20985 20986 1 0.10860 301825.392000
20985 20987 1 0.13986 296436.400000
20987 20988 1 0.10860 301825.392000
20987 20989 1 0.13986 296436.400000
20989 20990 1 0.10860 301825.392000
20991 20992 1 0.10860 301825.392000
20992 20993 1 0.13986 296436.400000
20992 21001 1 0.13986 296436.400000
20993 20994 1 0.18850 35430.112000
20993 20995 1 0.13986 296436.400000
20995 20996 1 0.10860 301825.392000
20995 20997 1 0.13986 296436.400000
20997 20998 1 0.10860 301825.392000
20997 20999 1 0.13986 296436.400000
20999 21000 1 0.10860 301825.392000
20999 21001 1 0.13986 296436.400000
21001 21002 1 0.10860 301825.392000
21003 21004 1 0.10860 301825.392000
21004 21005 1 0.13986 296436.400000
21004 21013 1 0.13986 296436.400000
21005 21006 1 0.18850 35430.112000
21005 21007 1 0.13986 296436.400000
21007 21008 1 0.10860 301825.392000
21007 21009 1 0.13986 296436.400000
21009 21010 1 0.10860 301825.392000
21009 21011 1 0.13986 296436.400000
21011 21012 1 0.10860 301825.392000
21011 21013 1 0.13986 296436.400000
21013 21014 1 0.10860 301825.392000
21015 21016 1 0.10860 301825.392000
21016 21017 1 0.13986 296436.400000
21016 21025 1 0.13986 296436.400000
21017 21018 1 0.18850 35430.112000
21017 21019 1 0.13986 296436.400000
21019 21020 1 0.10860 301825.392000
21019 21021 1 0.13986 296436.400000
21021 21022 1 0.10860 301825.392000
21021 21023 1 0.13986 296436.400000
21023 21024 1 0.10860 301825.392000
21023 21025 1 0.13986 296436.400000
21025 21026 1 0.10860 301825.392000
21027 21028 1 0.10860 301825.392000
21028 21029 1 0.13986 296436.400000
21028 21037 1 0.13986 296436.400000
21029 21030 1 0.18850 35430.112000
21029 21031 1 0.13986 296436.400000
21031 21032 1 0.10860 301825.392000
21031 21033 1 0.13986 296436.400000
21033 21034 1 0.10860 301825.392000
21033 21035 1 0.13986 296436.400000
21035 21036 1 0.10860 301825.392000
21035 21037 1 0.13986 296436.400000
21037 21038 1 0.10860 301825.392000
21039 21040 1 0.10860 301825.392000
21040 21041 1 0.13986 296436.400000
21040 21049 1 0.13986 296436.400000
21041 21042 1 0.18850 35430.112000
21041 21043 1 0.13986 296436.400000
21043 21044 1 0.10860 301825.392000
21043 21045 1 0.13986 296436.400000
21045 21046 1 0.10860 301825.392000
21045 21047 1 0.13986 296436.400000
21047 21048 1 0.10860 301825.392000
21047 21049 1 0.13986 296436.400000
21049 21050 1 0.10860 301825.392000
21051 21052 1 0.10860 301825.392000
21052 21053 1 0.13986 296436.400000
21052 21061 1 0.13986 296436.400000
21053 21054 1 0.18850 35430.112000
21053 21055 1 0.13986 296436.400000
21055 21056 1 0.10860 301825.392000
21055 21057 1 0.13986 296436.400000
21057 21058 1 0.10860 301825.392000
21057 21059 1 0.13986 296436.400000
21059 21060 1 0.10860 301825.392000
21059 21061 1 0.13986 296436.400000
21061 21062 1 0.10860 301825.392000
21063 21064 1 0.10860 301825.392000
21064 21065 1 0.13986 296436.400000
21064 21073 1 0.13986 296436.400000
21065 21066 1 0.18850 35430.112000
21065 21067 1 0.13986 296436.400000
21067 21068 1 0.10860 301825.392000
21067 21069 1 0.13986 296436.400000
21069 21070 1 0.10860 301825.392000
21069 21071 1 0.13986 296436.400000
21071 21072 1 0.10860 301825.392000
21071 21073 1 0.13986 296436.400000
21073 21074 1 0.10860 301825.392000
21075 21076 1 0.10860 301825.392000
21076 21077 1 0.13986 296436.400000
21076 21085 1 0.13986 296436.400000
21077 21078 1 0.18850 35430.112000
21077 21079 1 0.13986 296436.400000
21079 21080 1 0.10860 301825.392000
21079 21081 1 0.13986 296436.400000
21081 21082 1 0.10860 301825.392000
21081 21083 1 0.13986 296436.400000
21083 21084 1 0.10860 301825.392000
21083 21085 1 0.13986 296436.400000
21085 21086 1 0.10860 301825.392000
21087 21088 1 0.10860 301825.392000
21088 21089 1 0.13986 296436.400000
21088 21097 1 0.13986 296436.400000
21089 21090 1 0.18850 35430.112000
21089 21091 1 0.13986 296436.400000
21091 21092 1 0.10860 301825.392000
21091 21093 1 0.13986 296436.400000
21093 21094 1 0.10860 301825.392000
21093 21095 1 0.13986 296436.400000
21095 21096 1 0.10860 301825.392000
21095 21097 1 0.13986 296436.400000
21097 21098 1 0.10860 301825.392000
21099 21100 1 0.10860 301825.392000
21100 21101 1 0.13986 296436.400000
21100 21109 1 0.13986 296436.400000
21101 21102 1 0.18850 35430.112000
21101 21103 1 0.13986 296436.400000
21103 21104 1 0.10860 301825.392000
21103 21105 1 0.13986 296436.400000
21105 21106 1 0.10860 301825.392000
21105 21107 1 0.13986 296436.400000
21107 21108 1 0.10860 301825.392000
21107 21109 1 0.13986 296436.400000
21109 21110 1 0.10860 301825.392000
21111 21112 1 0.10860 301825.392000
21112 21113 1 0.13986 296436.400000
21112 21121 1 0.13986 296436.400000
21113 21114 1 0.18850 35430.112000
21113 21115 1 0.13986 296436.400000
21115 21116 1 0.10860 301825.392000
21115 21117 1 0.13986 296436.400000
21117 21118 1 0.10860 301825.392000
21117 21119 1 0.13986 296436.400000
21119 21120 1 0.10860 301825.392000
21119 21121 1 0.13986 296436.400000
21121 21122 1 0.10860 301825.392000
21123 21124 1 0.10860 301825.392000
21124 21125 1 0.13986 296436.400000
21124 21133 1 0.13986 296436.400000
21125 21126 1 0.18850 35430.112000
21125 21127 1 0.13986 296436.400000
21127 21128 1 0.10860 301825.392000
21127 21129 1 0.13986 296436.400000
21129 21130 1 0.10860 301825.392000
21129 21131 1 0.13986 296436.400000
21131 21132 1 0.10860 301825.392000
21131 21133 1 0.13986 296436.400000
21133 21134 1 0.10860 301825.392000
21135 21136 1 0.10860 301825.392000
21136 21137 1 0.13986 296436.400000
21136 21145 1 0.13986 296436.400000
21137 21138 1 0.18850 35430.112000
21137 21139 1 0.13986 296436.400000
21139 21140 1 0.10860 301825.392000
21139 21141 1 0.13986 296436.400000
21141 21142 1 0.10860 301825.392000
21141 21143 1 0.13986 296436.400000
21143 21144 1 0.10860 301825.392000
21143 21145 1 0.13986 296436.400000
21145 21146 1 0.10860 301825.392000
21147 21148 1 0.10860 301825.392000
21148 21149 1 0.13986 296436.400000
21148 21157 1 0.13986 296436.400000
21149 21150 1 0.18850 35430.112000
21149 21151 1 0.13986 296436.400000
21151 21152 1 0.10860 301825.392000
21151 21153 1 0.13986 296436.400000
21153 21154 1 0.10860 301825.392000
21153 21155 1 0.13986 296436.400000
21155 21156 1 0.10860 301825.392000
21155 21157 1 0.13986 296436.400000
21157 21158 1 0.10860 301825.392000
21159 21160 1 0.10860 301825.392000
21160 21161 1 0.13986 296436.400000
21160 21169 1 0.13986 296436.400000
21161 21162 1 0.18850 35430.112000
21161 21163 1 0.13986 296436.400000
21163 21164 1 0.10860 301825.392000
21163 21165 1 0.13986 296436.400000
21165 21166 1 0.10860 301825.392000
21165 21167 1 0.13986 296436.400000
21167 21168 1 0.10860 301825.392000
21167 21169 1 0.13986 296436.400000
21169 21170 1 0.10860 301825.392000
21171 21172 1 0.10860 301825.392000
21172 21173 1 0.13986 296436.400000
21172 21181 1 0.13986 296436.400000
21173 21174 1 0.18850 35430.112000
21173 21175 1 0.13986 296436.400000
21175 21176 1 0.10860 301825.392000
21175 21177 1 0.13986 296436.400000
21177 21178 1 0.10860 301825.392000
21177 21179 1 0.13986 296436.400000
21179 21180 1 0.10860 301825.392000
21179 21181 1 0.13986 296436.400000
21181 21182 1 0.10860 301825.392000
21183 21184 1 0.10860 301825.392000
21184 21185 1 0.13986 296436.400000
21184 21193 1 0.13986 296436.400000
21185 21186 1 0.18850 35430.112000
21185 21187 1 0.13986 296436.400000
21187 21188 1 0.10860 301825.392000
21187 21189 1 0.13986 296436.400000
21189 21190 1 0.10860 301825.392000
21189 21191 1 0.13986 296436.400000
21191 21192 1 0.10860 301825.392000
21191 21193 1 0.13986 296436.400000
21193 21194 1 0.10860 301825.392000
21195 21196 1 0.10860 301825.392000
21196 21197 1 0.13986 296436.400000
21196 21205 1 0.13986 296436.400000
21197 21198 1 0.18850 35430.112000
21197 21199 1 0.13986 296436.400000
21199 21200 1 0.10860 301825.392000
21199 21201 1 0.13986 296436.400000
21201 21202 1 0.10860 301825.392000
21201 21203 1 0.13986 296436.400000
21203 21204 1 0.10860 301825.392000
21203 21205 1 0.13986 296436.400000
21205 21206 1 0.10860 301825.392000
21207 21208 1 0.10860 301825.392000
21208 21209 1 0.13986 296436.400000
21208 21217 1 0.13986 296436.400000
21209 21210 1 0.18850 35430.112000
21209 21211 1 0.13986 296436.400000
21211 21212 1 0.10860 301825.392000
21211 21213 1 0.13986 296436.400000
21213 21214 1 0.10860 301825.392000
21213 21215 1 0.13986 296436.400000
21215 21216 1 0.10860 301825.392000
21215 21217 1 0.13986 296436.400000
21217 21218 1 0.10860 301825.392000
21219 21220 1 0.10860 301825.392000
21220 21221 1 0.13986 296436.400000
21220 21229 1 0.13986 296436.400000
21221 21222 1 0.18850 35430.112000
21221 21223 1 0.13986 296436.400000
21223 21224 1 0.10860 301825.392000
21223 21225 1 0.13986 296436.400000
21225 21226 1 0.10860 301825.392000
21225 21227 1 0.13986 296436.400000
21227 21228 1 0.10860 301825.392000
21227 21229 1 0.13986 296436.400000
21229 21230 1 0.10860 301825.392000
21231 21232 1 0.10860 301825.392000
21232 21233 1 0.13986 296436.400000
21232 21241 1 0.13986 296436.400000
21233 21234 1 0.18850 35430.112000
21233 21235 1 0.13986 296436.400000
21235 21236 1 0.10860 301825.392000
21235 21237 1 0.13986 296436.400000
21237 21238 1 0.10860 301825.392000
21237 21239 1 0.13986 296436.400000
21239 21240 1 0.10860 301825.392000
21239 21241 1 0.13986 296436.400000
21241 21242 1 0.10860 301825.392000
21243 21244 1 0.10860 301825.392000
21244 21245 1 0.13986 296436.400000
21244 21253 1 0.13986 296436.400000
21245 21246 1 0.18850 35430.112000
21245 21247 1 0.13986 296436.400000
21247 21248 1 0.10860 301825.392000
21247 21249 1 0.13986 296436.400000
21249 21250 1 0.10860 301825.392000
21249 21251 1 0.13986 296436.400000
21251 21252 1 0.10860 301825.392000
21251 21253 1 0.13986 296436.400000
21253 21254 1 0.10860 301825.392000
21255 21256 1 0.10860 301825.392000
21256 21257 1 0.13986 296436.400000
21256 21265 1 0.13986 296436.400000
21257 21258 1 0.18850 35430.112000
21257 21259 1 0.13986 296436.400000
21259 21260 1 0.10860 301825.392000
21259 21261 1 0.13986 296436.400000
21261 21262 1 0.10860 301825.392000
21261 21263 1 0.13986 296436.400000
21263 21264 1 0.10860 301825.392000
21263 21265 1 0.13986 296436.400000
21265 21266 1 0.10860 301825.392000
21267 21268 1 0.10860 301825.392000
21268 21269 1 0.13986 296436.400000
21268 21277 1 0.13986 296436.400000
21269 21270 1 0.18850 35430.112000
21269 21271 1 0.13986 296436.400000
21271 21272 1 0.10860 301825.392000
21271 21273 1 0.13986 296436.400000
21273 21274 1 0.10860 301825.392000
21273 21275 1 0.13986 296436.400000
21275 21276 1 0.10860 301825.392000
21275 21277 1 0.13986 296436.400000
21277 21278 1 0.10860 301825.392000
21279 21280 1 0.10860 301825.392000
21280 21281 1 0.13986 296436.400000
21280 21289 1 0.13986 296436.400000
21281 21282 1 0.18850 35430.112000
21281 21283 1 0.13986 296436.400000
21283 21284 1 0.10860 301825.392000
21283 21285 1 0.13986 296436.400000
21285 21286 1 0.10860 301825.392000
21285 21287 1 0.13986 296436.400000
21287 21288 1 0.10860 301825.392000
21287 21289 1 0.13986 296436.400000
21289 21290 1 0.10860 301825.392000
21291 21292 1 0.10860 301825.392000
21292 21293 1 0.13986 296436.400000
21292 21301 1 0.13986 296436.400000
21293 21294 1 0.18850 35430.112000
21293 21295 1 0.13986 296436.400000
21295 21296 1 0.10860 301825.392000
21295 21297 1 0.13986 296436.400000
21297 21298 1 0.10860 301825.392000
21297 21299 1 0.13986 296436.400000
21299 21300 1 0.10860 301825.392000
21299 21301 1 0.13986 296436.400000
21301 21302 1 0.10860 301825.392000
21303 21304 1 0.10860 301825.392000
21304 21305 1 0.13986 296436.400000
21304 21313 1 0.13986 296436.400000
21305 21306 1 0.18850 35430.112000
21305 21307 1 0.13986 296436.400000
21307 21308 1 0.10860 301825.392000
21307 21309 1 0.13986 296436.400000
21309 21310 1 0.10860 301825.392000
21309 21311 1 0.13986 296436.400000
21311 21312 1 0.10860 301825.392000
21311 21313 1 0.13986 296436.400000
21313 21314 1 0.10860 301825.392000
21315 21316 1 0.10860 301825.392000
21316 21317 1 0.13986 296436.400000
21316 21325 1 0.13986 296436.400000
21317 21318 1 0.18850 35430.112000
21317 21319 1 0.13986 296436.400000
21319 21320 1 0.10860 301825.392000
21319 21321 1 0.13986 296436.400000
21321 21322 1 0.10860 301825.392000
21321 21323 1 0.13986 296436.400000
21323 21324 1 0.10860 301825.392000
21323 21325 1 0.13986 296436.400000
21325 21326 1 0.10860 301825.392000
21327 21328 1 0.10860 301825.392000
21328 21329 1 0.13986 296436.400000
21328 21337 1 0.13986 296436.400000
21329 21330 1 0.18850 35430.112000
21329 21331 1 0.13986 296436.400000
21331 21332 1 0.10860 301825.392000
21331 21333 1 0.13986 296436.400000
21333 21334 1 0.10860 301825.392000
21333 21335 1 0.13986 296436.400000
21335 21336 1 0.10860 301825.392000
21335 21337 1 0.13986 296436.400000
21337 21338 1 0.10860 301825.392000
21339 21340 1 0.10860 301825.392000
21340 21341 1 0.13986 296436.400000
21340 21349 1 0.13986 296436.400000
21341 21342 1 0.18850 35430.112000
21341 21343 1 0.13986 296436.400000
21343 21344 1 0.10860 301825.392000
21343 21345 1 0.13986 296436.400000
21345 21346 1 0.10860 301825.392000
21345 21347 1 0.13986 296436.400000
21347 21348 1 0.10860 301825.392000
21347 21349 1 0.13986 296436.400000
21349 21350 1 0.10860 301825.392000
21351 21352 1 0.10860 301825.392000
21352 21353 1 0.13986 296436.400000
21352 21361 1 0.13986 296436.400000
21353 21354 1 0.18850 35430.112000
21353 21355 1 0.13986 296436.400000
21355 21356 1 0.10860 301825.392000
21355 21357 1 0.13986 296436.400000
21357 21358 1 0.10860 301825.392000
21357 21359 1 0.13986 296436.400000
21359 21360 1 0.10860 301825.392000
21359 21361 1 0.13986 296436.400000
21361 21362 1 0.10860 301825.392000
21363 21364 1 0.10860 301825.392000
21364 21365 1 0.13986 296436.400000
21364 21373 1 0.13986 296436.400000
21365 21366 1 0.18850 35430.112000
21365 21367 1 0.13986 296436.400000
21367 21368 1 0.10860 301825.392000
21367 21369 1 0.13986 296436.400000
21369 21370 1 0.10860 301825.392000
21369 21371 1 0.13986 296436.400000
21371 21372 1 0.10860 301825.392000
21371 21373 1 0.13986 296436.400000
21373 21374 1 0.10860 301825.392000
21375 21376 1 0.10860 301825.392000
21376 21377 1 0.13986 296436.400000
21376 21385 1 0.13986 296436.400000
21377 21378 1 0.18850 35430.112000
21377 21379 1 0.13986 296436.400000
21379 21380 1 0.10860 301825.392000
21379 21381 1 0.13986 296436.400000
21381 21382 1 0.10860 301825.392000
21381 21383 1 0.13986 296436.400000
21383 21384 1 0.10860 301825.392000
21383 21385 1 0.13986 296436.400000
21385 21386 1 0.10860 301825.392000
21387 21388 1 0.10860 301825.392000
21388 21389 1 0.13986 296436.400000
21388 21397 1 0.13986 296436.400000
21389 21390 1 0.18850 35430.112000
21389 21391 1 0.13986 296436.400000
21391 21392 1 0.10860 301825.392000
21391 21393 1 0.13986 296436.400000
21393 21394 1 0.10860 301825.392000
21393 21395 1 0.13986 296436.400000
21395 21396 1 0.10860 301825.392000
21395 21397 1 0.13986 296436.400000
21397 21398 1 0.10860 301825.392000
21399 21400 1 0.10860 301825.392000
21400 21401 1 0.13986 296436.400000
21400 21409 1 0.13986 296436.400000
21401 21402 1 0.18850 35430.112000
21401 21403 1 0.13986 296436.400000
21403 21404 1 0.10860 301825.392000
21403 21405 1 0.13986 296436.400000
21405 21406 1 0.10860 301825.392000
21405 21407 1 0.13986 296436.400000
21407 21408 1 0.10860 301825.392000
21407 21409 1 0.13986 296436.400000
21409 21410 1 0.10860 301825.392000
21411 21412 1 0.10860 301825.392000
21412 21413 1 0.13986 296436.400000
21412 21421 1 0.13986 296436.400000
21413 21414 1 0.18850 35430.112000
21413 21415 1 0.13986 296436.400000
21415 21416 1 0.10860 301825.392000
21415 21417 1 0.13986 296436.400000
21417 21418 1 0.10860 301825.392000
21417 21419 1 0.13986 296436.400000
21419 21420 1 0.10860 301825.392000
21419 21421 1 0.13986 296436.400000
21421 21422 1 0.10860 301825.392000
21423 21424 1 0.10860 301825.392000
21424 21425 1 0.13986 296436.400000
21424 21433 1 0.13986 296436.400000
21425 21426 1 0.18850 35430.112000
21425 21427 1 0.13986 296436.400000
21427 21428 1 0.10860 301825.392000
21427 21429 1 0.13986 296436.400000
21429 21430 1 0.10860 301825.392000
21429 21431 1 0.13986 296436.400000
21431 21432 1 0.10860 301825.392000
21431 21433 1 0.13986 296436.400000
21433 21434 1 0.10860 301825.392000
21435 21436 1 0.10860 301825.392000
21436 21437 1 0.13986 296436.400000
21436 21445 1 0.13986 296436.400000
21437 21438 1 0.18850 35430.112000
21437 21439 1 0.13986 296436.400000
21439 21440 1 0.10860 301825.392000
21439 21441 1 0.13986 296436.400000
21441 21442 1 0.10860 301825.392000
21441 21443 1 0.13986 296436.400000
21443 21444 1 0.10860 301825.392000
21443 21445 1 0.13986 296436.400000
21445 21446 1 0.10860 301825.392000
21447 21448 1 0.10860 301825.392000
21448 21449 1 0.13986 296436.400000
21448 21457 1 0.13986 296436.400000
21449 21450 1 0.18850 35430.112000
21449 21451 1 0.13986 296436.400000
21451 21452 1 0.10860 301825.392000
21451 21453 1 0.13986 296436.400000
21453 21454 1 0.10860 301825.392000
21453 21455 1 0.13986 296436.400000
21455 21456 1 0.10860 301825.392000
21455 21457 1 0.13986 296436.400000
21457 21458 1 0.10860 301825.392000
21459 21460 1 0.10860 301825.392000
21460 21461 1 0.13986 296436.400000
21460 21469 1 0.13986 296436.400000
21461 21462 1 0.18850 35430.112000
21461 21463 1 0.13986 296436.400000
21463 21464 1 0.10860 301825.392000
21463 21465 1 0.13986 296436.400000
21465 21466 1 0.10860 301825.392000
21465 21467 1 0.13986 296436.400000
21467 21468 1 0.10860 301825.392000
21467 21469 1 0.13986 296436.400000
21469 21470 1 0.10860 301825.392000
21471 21472 1 0.10860 301825.392000
21472 21473 1 0.13986 296436.400000
21472 21481 1 0.13986 296436.400000
21473 21474 1 0.18850 35430.112000
21473 21475 1 0.13986 296436.400000
21475 21476 1 0.10860 301825.392000
21475 21477 1 0.13986 296436.400000
21477 21478 1 0.10860 301825.392000
21477 21479 1 0.13986 296436.400000
21479 21480 1 0.10860 301825.392000
21479 21481 1 0.13986 296436.400000
21481 21482 1 0.10860 301825.392000
21483 21484 1 0.10860 301825.392000
21484 21485 1 0.13986 296436.400000
21484 21493 1 0.13986 296436.400000
21485 21486 1 0.18850 35430.112000
21485 21487 1 0.13986 296436.400000
21487 21488 1 0.10860 301825.392000
21487 21489 1 0.13986 296436.400000
21489 21490 1 0.10860 301825.392000
21489 21491 1 0.13986 296436.400000
21491 21492 1 0.10860 301825.392000
21491 21493 1 0.13986 296436.400000
21493 21494 1 0.10860 301825.392000
21495 21496 1 0.10860 301825.392000
21496 21497 1 0.13986 296436.400000
21496 21505 1 0.13986 296436.400000
21497 21498 1 0.18850 35430.112000
21497 21499 1 0.13986 296436.400000
21499 21500 1 0.10860 301825.392000
21499 21501 1 0.13986 296436.400000
21501 21502 1 0.10860 301825.392000
21501 21503 1 0.13986 296436.400000
21503 21504 1 0.10860 301825.392000
21503 21505 1 0.13986 296436.400000
21505 21506 1 0.10860 301825.392000
21507 21508 1 0.16500 119244.000000
21508 21509 1 0.09450 207108.000000
21510 21511 1 0.16500 119244.000000
21511 21512 1 0.09450 207108.000000
21513 21514 1 0.16500 119244.000000
21514 21515 1 0.09450 207108.000000
21516 21517 1 0.16500 119244.000000
21517 21518 1 0.09450 207108.000000
21519 21520 1 0.16500 119244.000000
21520 21521 1 0.09450 207108.000000
21522 21523 1 0.16500 119244.000000
21523 21524 1 0.09450 207108.000000
21525 21526 1 0.16500 119244.000000
21526 21527 1 0.09450 207108.000000
21528 21529 1 0.16500 119244.000000
21529 21530 1 0.09450 207108.000000
21531 21532 1 0.16500 119244.000000
21532 21533 1 0.09450 207108.000000
21534 21535 1 0.16500 119244.000000
21535 21536 1 0.09450 207108.000000
21537 21538 1 0.16500 119244.000000
21538 21539 1 0.09450 207108.000000
21540 21541 1 0.16500 119244.000000
21541 21542 1 0.09450 207108.000000
21543 21544 1 0.16500 119244.000000
21544 21545 1 0.09450 207108.000000
21546 21547 1 0.16500 119244.000000
21547 21548 1 0.09450 207108.000000
21549 21550 1 0.16500 119244.000000
21550 21551 1 0.09450 207108.000000
21552 21553 1 0.16500 119244.000000
21553 21554 1 0.09450 207108.000000
21555 21556 1 0.16500 119244.000000
21556 21557 1 0.09450 207108.000000
21558 21559 1 0.16500 119244.000000
21559 21560 1 0.09450 207108.000000
21561 21562 1 0.16500 119244.000000
21562 21563 1 0.09450 207108.000000
21564 21565 1 0.16500 119244.000000
21565 21566 1 0.09450 207108.000000
21567 21568 1 0.16500 119244.000000
21568 21569 1 0.09450 207108.000000
21570 21571 1 0.16500 119244.000000
21571 21572 1 0.09450 207108.000000
21573 21574 1 0.16500 119244.000000
21574 21575 1 0.09450 207108.000000
21576 21577 1 0.16500 119244.000000
21577 21578 1 0.09450 207108.000000
21579 21580 1 0.16500 119244.000000
21580 21581 1 0.09450 207108.000000
21582 21583 1 0.16500 119244.000000
21583 21584 1 0.09450 207108.000000
21585 21586 1 0.16500 119244.000000
21586 21587 1 0.09450 207108.000000
21588 21589 1 0.16500 119244.000000
21589 21590 1 0.09450 207108.000000
21591 21592 1 0.16500 119244.000000
21592 21593 1 0.09450 207108.000000
21594 21595 1 0.16500 119244.000000
21595 21596 1 0.09450 207108.000000
21597 21598 1 0.16500 119244.000000
21598 21599 1 0.09450 207108.000000
21600 21601 1 0.16500 119244.000000
21601 21602 1 0.09450 207108.000000
21603 21604 1 0.16500 119244.000000
21604 21605 1 0.09450 207108.000000
21606 21607 1 0.16500 119244.000000
21607 21608 1 0.09450 207108.000000
21609 21610 1 0.16500 119244.000000
21610 21611 1 0.09450 207108.000000
21612 21613 1 0.16500 119244.000000
21613 21614 1 0.09450 207108.000000
21615 21616 1 0.16500 119244.000000
21616 21617 1 0.09450 207108.000000
21618 21619 1 0.16500 119244.000000
21619 21620 1 0.09450 207108.000000
21621 21622 1 0.16500 119244.000000
21622 21623 1 0.09450 207108.000000
21624 21625 1 0.16500 119244.000000
21625 21626 1 0.09450 207108.000000
21627 21628 1 0.16500 119244.000000
21628 21629 1 0.09450 207108.000000
21630 21631 1 0.16500 119244.000000
21631 21632 1 0.09450 207108.000000
21633 21634 1 0.16500 119244.000000
21634 21635 1 0.09450 207108.000000
21636 21637 1 0.16500 119244.000000
21637 21638 1 0.09450 207108.000000
21639 21640 1 0.16500 119244.000000
21640 21641 1 0.09450 207108.000000
21642 21643 1 0.16500 119244.000000
21643 21644 1 0.09450 207108.000000
21645 21646 1 0.16500 119244.000000
21646 21647 1 0.09450 207108.000000
21648 21649 1 0.16500 119244.000000
21649 21650 1 0.09450 207108.000000
21651 21652 1 0.16500 119244.000000
21652 21653 1 0.09450 207108.000000
21654 21655 1 0.16500 119244.000000
21655 21656 1 0.09450 207108.000000
21657 21658 1 0.16500 119244.000000
21658 21659 1 0.09450 207108.000000
21660 21661 1 0.16500 119244.000000
21661 21662 1 0.09450 207108.000000
21663 21664 1 0.16500 119244.000000
21664 21665 1 0.09450 207108.000000
21666 21667 1 0.16500 119244.000000
21667 21668 1 0.09450 207108.000000
21669 21670 1 0.16500 119244.000000
21670 21671 1 0.09450 207108.000000
21672 21673 1 0.16500 119244.000000
21673 21674 1 0.09450 207108.000000
21675 21676 1 0.16500 119244.000000
21676 21677 1 0.09450 207108.000000
21678 21679 1 0.16500 119244.000000
21679 21680 1 0.09450 207108.000000
21681 21682 1 0.16500 119244.000000
21682 21683 1 0.09450 207108.000000
21684 21685 1 0.16500 119244.000000
21685 21686 1 0.09450 207108.000000
21687 21688 1 0.16500 119244.000000
21688 21689 1 0.09450 207108.000000
21690 21691 1 0.16500 119244.000000
21691 21692 1 0.09450 207108.000000
21693 21694 1 0.16500 119244.000000
21694 21695 1 0.09450 207108.000000
21696 21697 1 0.16500 119244.000000
21697 21698 1 0.09450 207108.000000
21699 21700 1 0.16500 119244.000000
21700 21701 1 0.09450 207108.000000
21702 21703 1 0.16500 119244.000000
21703 21704 1 0.09450 207108.000000
21705 21706 1 0.16500 119244.000000
21706 21707 1 0.09450 207108.000000
21708 21709 1 0.16500 119244.000000
21709 21710 1 0.09450 207108.000000
21711 21712 1 0.16500 119244.000000
21712 21713 1 0.09450 207108.000000
21714 21715 1 0.16500 119244.000000
21715 21716 1 0.09450 207108.000000
21717 21718 1 0.16500 119244.000000
21718 21719 1 0.09450 207108.000000
21720 21721 1 0.16500 119244.000000
21721 21722 1 0.09450 207108.000000
21723 21724 1 0.16500 119244.000000
21724 21725 1 0.09450 207108.000000
21726 21727 1 0.16500 119244.000000
21727 21728 1 0.09450 207108.000000
21729 21730 1 0.16500 119244.000000
21730 21731 1 0.09450 207108.000000
21732 21733 1 0.16500 119244.000000
21733 21734 1 0.09450 207108.000000
21735 21736 1 0.16500 119244.000000
21736 21737 1 0.09450 207108.000000
21738 21739 1 0.16500 119244.000000
21739 21740 1 0.09450 207108.000000
21741 21742 1 0.16500 119244.000000
21742 21743 1 0.09450 207108.000000
21744 21745 1 0.16500 119244.000000
21745 21746 1 0.09450 207108.000000
21747 21748 1 0.16500 119244.000000
21748 21749 1 0.09450 207108.000000
21750 21751 1 0.16500 119244.000000
21751 21752 1 0.09450 207108.000000
21753 21754 1 0.16500 119244.000000
21754 21755 1 0.09450 207108.000000
21756 21757 1 0.16500 119244.000000
21757 21758 1 0.09450 207108.000000
21759 21760 1 0.16500 119244.000000
21760 21761 1 0.09450 207108.000000
21762 21763 1 0.16500 119244.000000
21763 21764 1 0.09450 207108.000000
21765 21766 1 0.16500 119244.000000
21766 21767 1 0.09450 207108.000000
21768 21769 1 0.16500 119244.000000
21769 21770 1 0.09450 207108.000000
21771 21772 1 0.16500 119244.000000
21772 21773 1 0.09450 207108.000000
21774 21775 1 0.16500 119244.000000
21775 21776 1 0.09450 207108.000000
21777 21778 1 0.16500 119244.000000
21778 21779 1 0.09450 207108.000000
21780 21781 1 0.16500 119244.000000
21781 21782 1 0.09450 207108.000000
21783 21784 1 0.16500 119244.000000
21784 21785 1 0.09450 207108.000000
21786 21787 1 0.16500 119244.000000
21787 21788 1 0.09450 207108.000000
21789 21790 1 0.16500 119244.000000
21790 21791 1 0.09450 207108.000000
21792 21793 1 0.16500 119244.000000
21793 21794 1 0.09450 207108.000000
21795 21796 1 0.16500 119244.000000
21796 21797 1 0.09450 207108.000000
21798 21799 1 0.16500 119244.000000
21799 21800 1 0.09450 207108.000000
21801 21802 1 0.16500 119244.000000
21802 21803 1 0.09450 207108.000000
21804 21805 1 0.16500 119244.000000
21805 21806 1 0.09450 207108.000000
21807 21808 1 0.16500 119244.000000
21808 21809 1 0.09450 207108.000000
21810 21811 1 0.16500 119244.000000
21811 21812 1 0.09450 207108.000000
21813 21814 1 0.16500 119244.000000
21814 21815 1 0.09450 207108.000000
21816 21817 1 0.16500 119244.000000
21817 21818 1 0.09450 207108.000000
21819 21820 1 0.16500 119244.000000
21820 21821 1 0.09450 207108.000000
21822 21823 1 0.16500 119244.000000
21823 21824 1 0.09450 207108.000000
21825 21826 1 0.16500 119244.000000
21826 21827 1 0.09450 207108.000000
21828 21829 1 0.16500 119244.000000
21829 21830 1 0.09450 207108.000000
21831 21832 1 0.16500 119244.000000
21832 21833 1 0.09450 207108.000000
21834 21835 1 0.16500 119244.000000
21835 21836 1 0.09450 207108.000000
21837 21838 1 0.16500 119244.000000
21838 21839 1 0.09450 207108.000000
21840 21841 1 0.16500 119244.000000
21841 21842 1 0.09450 207108.000000
21843 21844 1 0.16500 119244.000000
21844 21845 1 0.09450 207108.000000
21846 21847 1 0.16500 119244.000000
21847 21848 1 0.09450 207108.000000
21849 21850 1 0.16500 119244.000000
21850 21851 1 0.09450 207108.000000
21852 21853 1 0.16500 119244.000000
21853 21854 1 0.09450 207108.000000
21855 21856 1 0.16500 119244.000000
21856 21857 1 0.09450 207108.000000
21858 21859 1 0.16500 119244.000000
21859 21860 1 0.09450 207108.000000
21861 21862 1 0.16500 119244.000000
21862 21863 1 0.09450 207108.000000
21864 21865 1 0.16500 119244.000000
21865 21866 1 0.09450 207108.000000
21867 21868 1 0.16500 119244.000000
21868 21869 1 0.09450 207108.000000
21870 21871 1 0.16500 119244.000000
21871 21872 1 0.09450 207108.000000
21873 21874 1 0.16500 119244.000000
21874 21875 1 0.09450 207108.000000
21876 21877 1 0.16500 119244.000000
21877 21878 1 0.09450 207108.000000
21879 21880 1 0.16500 119244.000000
21880 21881 1 0.09450 207108.000000
21882 21883 1 0.16500 119244.000000
21883 21884 1 0.09450 207108.000000
21885 21886 1 0.16500 119244.000000
21886 21887 1 0.09450 207108.000000
21888 21889 1 0.16500 119244.000000
21889 21890 1 0.09450 207108.000000
21891 21892 1 0.16500 119244.000000
21892 21893 1 0.09450 207108.000000
21894 21895 1 0.16500 119244.000000
21895 21896 1 0.09450 207108.000000
21897 21898 1 0.16500 119244.000000
21898 21899 1 0.09450 207108.000000
21900 21901 1 0.16500 119244.000000
21901 21902 1 0.09450 207108.000000
21903 21904 1 0.16500 119244.000000
21904 21905 1 0.09450 207108.000000
21906 21907 1 0.16500 119244.000000
21907 21908 1 0.09450 207108.000000
21909 21910 1 0.16500 119244.000000
21910 21911 1 0.09450 207108.000000
21912 21913 1 0.16500 119244.000000
21913 21914 1 0.09450 207108.000000
21915 21916 1 0.16500 119244.000000
21916 21917 1 0.09450 207108.000000
21918 21919 1 0.16500 119244.000000
21919 21920 1 0.09450 207108.000000
21921 21922 1 0.16500 119244.000000
21922 21923 1 0.09450 207108.000000
21924 21925 1 0.16500 119244.000000
21925 21926 1 0.09450 207108.000000
21927 21928 1 0.16500 119244.000000
21928 21929 1 0.09450 207108.000000
21930 21931 1 0.16500 119244.000000
21931 21932 1 0.09450 207108.000000
21933 21934 1 0.16500 119244.000000
21934 21935 1 0.09450 207108.000000
21936 21937 1 0.16500 119244.000000
21937 21938 1 0.09450 207108.000000
21939 21940 1 0.16500 119244.000000
21940 21941 1 0.09450 207108.000000
21942 21943 1 0.16500 119244.000000
21943 21944 1 0.09450 207108.000000
21945 21946 1 0.16500 119244.000000
21946 21947 1 0.09450 207108.000000
21948 21949 1 0.16500 119244.000000
21949 21950 1 0.09450 207108.000000
21951 21952 1 0.16500 119244.000000
21952 21953 1 0.09450 207108.000000
21954 21955 1 0.16500 119244.000000
21955 21956 1 0.09450 207108.000000
21957 21958 1 0.16500 119244.000000
21958 21959 1 0.09450 207108.000000
21960 21961 1 0.16500 119244.000000
21961 21962 1 0.09450 207108.000000
21963 21964 1 0.16500 119244.000000
21964 21965 1 0.09450 207108.000000
21966 21967 1 0.16500 119244.000000
21967 21968 1 0.09450 207108.000000
21969 21970 1 0.16500 119244.000000
21970 21971 1 0.09450 207108.000000
21972 21973 1 0.16500 119244.000000
21973 21974 1 0.09450 207108.000000
21975 21976 1 0.16500 119244.000000
21976 21977 1 0.09450 207108.000000
21978 21979 1 0.16500 119244.000000
21979 21980 1 0.09450 207108.000000
21981 21982 1 0.16500 119244.000000
21982 21983 1 0.09450 207108.000000
21984 21985 1 0.16500 119244.000000
21985 21986 1 0.09450 207108.000000
21987 21988 1 0.16500 119244.000000
21988 21989 1 0.09450 207108.000000
21990 21991 1 0.16500 119244.000000
21991 21992 1 0.09450 207108.000000
21993 21994 1 0.16500 119244.000000
21994 21995 1 0.09450 207108.000000
21996 21997 1 0.16500 119244.000000
21997 21998 1 0.09450 207108.000000
21999 22000 1 0.16500 119244.000000
22000 22001 1 0.09450 207108.000000
22002 22003 1 0.16500 119244.000000
22003 22004 1 0.09450 207108.000000
22005 22006 1 0.16500 119244.000000
22006 22007 1 0.09450 207108.000000
22008 22009 1 0.16500 119244.000000
22009 22010 1 0.09450 207108.000000
22011 22012 1 0.16500 119244.000000
22012 22013 1 0.09450 207108.000000
22014 22015 1 0.16500 119244.000000
22015 22016 1 0.09450 207108.000000
22017 22018 1 0.16500 119244.000000
22018 22019 1 0.09450 207108.000000
22020 22021 1 0.16500 119244.000000
22021 22022 1 0.09450 207108.000000
22023 22024 1 0.16500 119244.000000
22024 22025 1 0.09450 207108.000000
22026 22027 1 0.16500 119244.000000
22027 22028 1 0.09450 207108.000000
22029 22030 1 0.16500 119244.000000
22030 22031 1 0.09450 207108.000000
22032 22033 1 0.16500 119244.000000
22033 22034 1 0.09450 207108.000000
22035 22036 1 0.16500 119244.000000
22036 22037 1 0.09450 207108.000000
22038 22039 1 0.16500 119244.000000
22039 22040 1 0.09450 207108.000000
22041 22042 1 0.16500 119244.000000
22042 22043 1 0.09450 207108.000000
22044 22045 1 0.16500 119244.000000
22045 22046 1 0.09450 207108.000000
22047 22048 1 0.16500 119244.000000
22048 22049 1 0.09450 207108.000000
22050 22051 1 0.16500 119244.000000
22051 22052 1 0.09450 207108.000000
22053 22054 1 0.16500 119244.000000
22054 22055 1 0.09450 207108.000000
22056 22057 1 0.16500 119244.000000
22057 22058 1 0.09450 207108.000000
22059 22060 1 0.16500 119244.000000
22060 22061 1 0.09450 207108.000000
22062 22063 1 0.16500 119244.000000
22063 22064 1 0.09450 207108.000000
22065 22066 1 0.16500 119244.000000
22066 22067 1 0.09450 207108.000000
22068 22069 1 0.16500 119244.000000
22069 22070 1 0.09450 207108.000000
22071 22072 1 0.16500 119244.000000
22072 22073 1 0.09450 207108.000000
22074 22075 1 0.16500 119244.000000
22075 22076 1 0.09450 207108.000000
22077 22078 1 0.16500 119244.000000
22078 22079 1 0.09450 207108.000000
22080 22081 1 0.16500 119244.000000
22081 22082 1 0.09450 207108.000000
22083 22084 1 0.16500 119244.000000
22084 22085 1 0.09450 207108.000000
22086 22087 1 0.16500 119244.000000
22087 22088 1 0.09450 207108.000000
22089 22090 1 0.16500 119244.000000
22090 22091 1 0.09450 207108.000000
22092 22093 1 0.16500 119244.000000
22093 22094 1 0.09450 207108.000000
22095 22096 1 0.16500 119244.000000
22096 22097 1 0.09450 207108.000000
22098 22099 1 0.16500 119244.000000
22099 22100 1 0.09450 207108.000000
22101 22102 1 0.16500 119244.000000
22102 22103 1 0.09450 207108.000000
22104 22105 1 0.16500 119244.000000
22105 22106 1 0.09450 207108.000000
22107 22108 1 0.16500 119244.000000
22108 22109 1 0.09450 207108.000000
22110 22111 1 0.16500 119244.000000
22111 22112 1 0.09450 207108.000000
22113 22114 1 0.16500 119244.000000
22114 22115 1 0.09450 207108.000000
22116 22117 1 0.16500 119244.000000
22117 22118 1 0.09450 207108.000000
22119 22120 1 0.16500 119244.000000
22120 22121 1 0.09450 207108.000000
22122 22123 1 0.16500 119244.000000
22123 22124 1 0.09450 207108.000000
22125 22126 1 0.16500 119244.000000
22126 22127 1 0.09450 207108.000000
22128 22129 1 0.16500 119244.000000
22129 22130 1 0.09450 207108.000000
22131 22132 1 0.16500 119244.000000
22132 22133 1 0.09450 207108.000000
22134 22135 1 0.16500 119244.000000
22135 22136 1 0.09450 207108.000000
22137 22138 1 0.16500 119244.000000
22138 22139 1 0.09450 207108.000000
22140 22141 1 0.16500 119244.000000
22141 22142 1 0.09450 207108.000000
22143 22144 1 0.16500 119244.000000
22144 22145 1 0.09450 207108.000000
22146 22147 1 0.16500 119244.000000
22147 22148 1 0.09450 207108.000000
22149 22150 1 0.16500 119244.000000
22150 22151 1 0.09450 207108.000000
22152 22153 1 0.16500 119244.000000
22153 22154 1 0.09450 207108.000000
22155 22156 1 0.16500 119244.000000
22156 22157 1 0.09450 207108.000000
22158 22159 1 0.16500 119244.000000
22159 22160 1 0.09450 207108.000000
22161 22162 1 0.16500 119244.000000
22162 22163 1 0.09450 207108.000000
22164 22165 1 0.16500 119244.000000
22165 22166 1 0.09450 207108.000000
22167 22168 1 0.16500 119244.000000
22168 22169 1 0.09450 207108.000000
22170 22171 1 0.16500 119244.000000
22171 22172 1 0.09450 207108.000000
22173 22174 1 0.16500 119244.000000
22174 22175 1 0.09450 207108.000000
22176 22177 1 0.16500 119244.000000
22177 22178 1 0.09450 207108.000000
22179 22180 1 0.16500 119244.000000
22180 22181 1 0.09450 207108.000000
22182 22183 1 0.16500 119244.000000
22183 22184 1 0.09450 207108.000000
22185 22186 1 0.16500 119244.000000
22186 22187 1 0.09450 207108.000000
22188 22189 1 0.16500 119244.000000
22189 22190 1 0.09450 207108.000000
22191 22192 1 0.16500 119244.000000
22192 22193 1 0.09450 207108.000000
22194 22195 1 0.16500 119244.000000
22195 22196 1 0.09450 207108.000000
22197 22198 1 0.16500 119244.000000
22198 22199 1 0.09450 207108.000000
22200 22201 1 0.16500 119244.000000
22201 22202 1 0.09450 207108.000000
22203 22204 1 0.16500 119244.000000
22204 22205 1 0.09450 207108.000000
22206 22207 1 0.16500 119244.000000
22207 22208 1 0.09450 207108.000000
22209 22210 1 0.16500 119244.000000
22210 22211 1 0.09450 207108.000000
22212 22213 1 0.16500 119244.000000
22213 22214 1 0.09450 207108.000000
22215 22216 1 0.16500 119244.000000
22216 22217 1 0.09450 207108.000000
22218 22219 1 0.16500 119244.000000
22219 22220 1 0.09450 207108.000000
22221 22222 1 0.16500 119244.000000
22222 22223 1 0.09450 207108.000000
22224 22225 1 0.16500 119244.000000
22225 22226 1 0.09450 207108.000000
22227 22228 1 0.16500 119244.000000
22228 22229 1 0.09450 207108.000000
22230 22231 1 0.16500 119244.000000
22231 22232 1 0.09450 207108.000000
22233 22234 1 0.16500 119244.000000
22234 22235 1 0.09450 207108.000000
22236 22237 1 0.16500 119244.000000
22237 22238 1 0.09450 207108.000000
22239 22240 1 0.16500 119244.000000
22240 22241 1 0.09450 207108.000000
22242 22243 1 0.16500 119244.000000
22243 22244 1 0.09450 207108.000000
22245 22246 1 0.16500 119244.000000
22246 22247 1 0.09450 207108.000000
22248 22249 1 0.16500 119244.000000
22249 22250 1 0.09450 207108.000000
22251 22252 1 0.16500 119244.000000
22252 22253 1 0.09450 207108.000000
22254 22255 1 0.16500 119244.000000
22255 22256 1 0.09450 207108.000000
22257 22258 1 0.16500 119244.000000
22258 22259 1 0.09450 207108.000000
22260 22261 1 0.16500 119244.000000
22261 22262 1 0.09450 207108.000000
22263 22264 1 0.16500 119244.000000
22264 22265 1 0.09450 207108.000000
22266 22267 1 0.16500 119244.000000
22267 22268 1 0.09450 207108.000000
22269 22270 1 0.16500 119244.000000
22270 22271 1 0.09450 207108.000000
22272 22273 1 0.16500 119244.000000
22273 22274 1 0.09450 207108.000000
22275 22276 1 0.16500 119244.000000
22276 22277 1 0.09450 207108.000000
22278 22279 1 0.16500 119244.000000
22279 22280 1 0.09450 207108.000000
22281 22282 1 0.16500 119244.000000
22282 22283 1 0.09450 207108.000000
22284 22285 1 0.16500 119244.000000
22285 22286 1 0.09450 207108.000000
22287 22288 1 0.16500 119244.000000
22288 22289 1 0.09450 207108.000000
22290 22291 1 0.16500 119244.000000
22291 22292 1 0.09450 207108.000000
22293 22294 1 0.16500 119244.000000
22294 22295 1 0.09450 207108.000000
22296 22297 1 0.16500 119244.000000
22297 22298 1 0.09450 207108.000000
22299 22300 1 0.16500 119244.000000
22300 22301 1 0.09450 207108.000000
22302 22303 1 0.16500 119244.000000
22303 22304 1 0.09450 207108.000000
22305 22306 1 0.16500 119244.000000
22306 22307 1 0.09450 207108.000000
22308 22309 1 0.16500 119244.000000
22309 22310 1 0.09450 207108.000000
22311 22312 1 0.16500 119244.000000
22312 22313 1 0.09450 207108.000000
22314 22315 1 0.16500 119244.000000
22315 22316 1 0.09450 207108.000000
22317 22318 1 0.16500 119244.000000
22318 22319 1 0.09450 207108.000000
22320 22321 1 0.16500 119244.000000
22321 22322 1 0.09450 207108.000000
22323 22324 1 0.16500 119244.000000
22324 22325 1 0.09450 207108.000000
22326 22327 1 0.16500 119244.000000
22327 22328 1 0.09450 207108.000000
22329 22330 1 0.16500 119244.000000
22330 22331 1 0.09450 207108.000000
22332 22333 1 0.16500 119244.000000
22333 22334 1 0.09450 207108.000000
22335 22336 1 0.16500 119244.000000
22336 22337 1 0.09450 207108.000000
22338 22339 1 0.16500 119244.000000
22339 22340 1 0.09450 207108.000000
22341 22342 1 0.16500 119244.000000
22342 22343 1 0.09450 207108.000000
22344 22345 1 0.16500 119244.000000
22345 22346 1 0.09450 207108.000000
22347 22348 1 0.16500 119244.000000
22348 22349 1 0.09450 207108.000000
22350 22351 1 0.16500 119244.000000
22351 22352 1 0.09450 207108.000000
22353 22354 1 0.16500 119244.000000
22354 22355 1 0.09450 207108.000000
22356 22357 1 0.16500 119244.000000
22357 22358 1 0.09450 207108.000000
22359 22360 1 0.16500 119244.000000
22359 22362 1 0.16500 119244.000000
22360 22361 1 0.09450 207108.000000
22362 22363 1 0.09450 207108.000000
22364 22365 1 0.16500 119244.000000
22364 22367 1 0.16500 119244.000000
22365 22366 1 0.09450 207108.000000
22367 22368 1 0.09450 207108.000000
22369 22370 1 0.16500 119244.000000
22369 22372 1 0.16500 119244.000000
22370 22371 1 0.09450 207108.000000
22372 22373 1 0.09450 207108.000000
22374 22375 1 0.16500 119244.000000
22374 22377 1 0.16500 119244.000000
22375 22376 1 0.09450 207108.000000
22377 22378 1 0.09450 207108.000000
22379 22380 1 0.16500 119244.000000
22379 22382 1 0.16500 119244.000000
22380 22381 1 0.09450 207108.000000
22382 22383 1 0.09450 207108.000000
22384 22385 1 0.16500 119244.000000
22384 22387 1 0.16500 119244.000000
22385 22386 1 0.09450 207108.000000
22387 22388 1 0.09450 207108.000000
22389 22390 1 0.16500 119244.000000
22389 22392 1 0.16500 119244.000000
22390 22391 1 0.09450 207108.000000
22392 22393 1 0.09450 207108.000000
22394 22395 1 0.16500 119244.000000
22394 22397 1 0.16500 119244.000000
22395 22396 1 0.09450 207108.000000
22397 22398 1 0.09450 207108.000000
22399 22400 1 0.16500 119244.000000
22399 22402 1 0.16500 119244.000000
22400 22401 1 0.09450 207108.000000
22402 22403 1 0.09450 207108.000000
22404 22405 1 0.16500 119244.000000
22404 22407 1 0.16500 119244.000000
22405 22406 1 0.09450 207108.000000
22407 22408 1 0.09450 207108.000000
22409 22410 1 0.16500 119244.000000
22409 22412 1 0.16500 119244.000000
22410 22411 1 0.09450 207108.000000
22412 22413 1 0.09450 207108.000000
22414 22415 1 0.16500 119244.000000
22414 22417 1 0.16500 119244.000000
22415 22416 1 0.09450 207108.000000
22417 22418 1 0.09450 207108.000000
22419 22420 1 0.16500 119244.000000
22419 22422 1 0.16500 119244.000000
22420 22421 1 0.09450 207108.000000
22422 22423 1 0.09450 207108.000000
22424 22425 1 0.16500 119244.000000
22424 22427 1 0.16500 119244.000000
22425 22426 1 0.09450 207108.000000
22427 22428 1 0.09450 207108.000000
22429 22430 1 0.16500 119244.000000
22429 22432 1 0.16500 119244.000000
22430 22431 1 0.09450 207108.000000
22432 22433 1 0.09450 207108.000000
22434 22435 1 0.16500 119244.000000
22434 22437 1 0.16500 119244.000000
22435 22436 1 0.09450 207108.000000
22437 22438 1 0.09450 207108.000000
22439 22440 1 0.16500 119244.000000
22439 22442 1 0.16500 119244.000000
22440 22441 1 0.09450 207108.000000
22442 22443 1 0.09450 207108.000000
22444 22445 1 0.16500 119244.000000
22444 22447 1 0.16500 119244.000000
22445 22446 1 0.09450 207108.000000
22447 22448 1 0.09450 207108.000000
22449 22450 1 0.16500 119244.000000
22449 22452 1 0.16500 119244.000000
22450 22451 1 0.09450 207108.000000
22452 22453 1 0.09450 207108.000000
22454 22455 1 0.16500 119244.000000
22454 22457 1 0.16500 119244.000000
22455 22456 1 0.09450 207108.000000
22457 22458 1 0.09450 207108.000000
22459 22460 1 0.16500 119244.000000
22459 22462 1 0.16500 119244.000000
22460 22461 1 0.09450 207108.000000
22462 22463 1 0.09450 207108.000000
22464 22465 1 0.16500 119244.000000
22464 22467 1 0.16500 119244.000000
22465 22466 1 0.09450 207108.000000
22467 22468 1 0.09450 207108.000000
22469 22470 1 0.16500 119244.000000
22469 22472 1 0.16500 119244.000000
22470 22471 1 0.09450 207108.000000
22472 22473 1 0.09450 207108.000000

[ pairs ]
; ai aj funct params
16527 16530 1
16527 16531 1
16527 16535 1
16527 16538 1
16528 16532 1
16528 16533 1
16528 16536 1
16529 16534 1
16529 16535 1
16529 16538 1
16530 16532 1
16530 16533 1
16530 16537 1
16531 16536 1
16531 16537 1
16532 16534 1
16532 16535 1
16533 16538 1
16534 16536 1
16534 16537 1
16536 16538 1
16541 16544 1
16541 16545 1
16541 16549 1
16541 16552 1
16542 16546 1
16542 16547 1
16542 16550 1
16543 16548 1
16543 16549 1
16543 16552 1
16544 16546 1
16544 16547 1
16544 16551 1
16545 16550 1
16545 16551 1
16546 16548 1
16546 16549 1
16547 16552 1
16548 16550 1
16548 16551 1
16550 16552 1
16555 16558 1
16555 16559 1
16555 16563 1
16555 16566 1
16556 16560 1
16556 16561 1
16556 16564 1
16557 16562 1
16557 16563 1
16557 16566 1
16558 16560 1
16558 16561 1
16558 16565 1
16559 16564 1
16559 16565 1
16560 16562 1
16560 16563 1
16561 16566 1
16562 16564 1
16562 16565 1
16564 16566 1
16569 16572 1
16569 16573 1
16569 16577 1
16569 16580 1
16570 16574 1
16570 16575 1
16570 16578 1
16571 16576 1
16571 16577 1
16571 16580 1
16572 16574 1
16572 16575 1
16572 16579 1
16573 16578 1
16573 16579 1
16574 16576 1
16574 16577 1
16575 16580 1
16576 16578 1
16576 16579 1
16578 16580 1
16583 16586 1
16583 16587 1
16583 16591 1
16583 16594 1
16584 16588 1
16584 16589 1
16584 16592 1
16585 16590 1
16585 16591 1
16585 16594 1
16586 16588 1
16586 16589 1
16586 16593 1
16587 16592 1
16587 16593 1
16588 16590 1
16588 16591 1
16589 16594 1
16590 16592 1
16590 16593 1
16592 16594 1
16597 16600 1
16597 16601 1
16597 16605 1
16597 16608 1
16598 16602 1
16598 16603 1
16598 16606 1
16599 16604 1
16599 16605 1
16599 16608 1
16600 16602 1
16600 16603 1
16600 16607 1
16601 16606 1
16601 16607 1
16602 16604 1
16602 16605 1
16603 16608 1
16604 16606 1
16604 16607 1
16606 16608 1
16611 16614 1
16611 16615 1
16611 16619 1
16611 16622 1
16612 16616 1
16612 16617 1
16612 16620 1
16613 16618 1
16613 16619 1
16613 16622 1
16614 16616 1
16614 16617 1
16614 16621 1
16615 16620 1
16615 16621 1
16616 16618 1
16616 16619 1
16617 16622 1
16618 16620 1
16618 16621 1
16620 16622 1
16625 16628 1
16625 16629 1
16625 16633 1
16625 16636 1
16626 16630 1
16626 16631 1
16626 16634 1
16627 16632 1
16627 16633 1
16627 16636 1
16628 16630 1
16628 16631 1
16628 16635 1
16629 16634 1
16629 16635 1
16630 16632 1
16630 16633 1
16631 16636 1
16632 16634 1
16632 16635 1
16634 16636 1
16639 16642 1
16639 16643 1
16639 16647 1
16639 16650 1
16640 16644 1
16640 16645 1
16640 16648 1
16641 16646 1
16641 16647 1
16641 16650 1
16642 16644 1
16642 16645 1
16642 16649 1
16643 16648 1
16643 16649 1
16644 16646 1
16644 16647 1
16645 16650 1
16646 16648 1
16646 16649 1
16648 16650 1
16653 16656 1
16653 16657 1
16653 16661 1
16653 16664 1
16654 16658 1
16654 16659 1
16654 16662 1
16655 16660 1
16655 16661 1
16655 16664 1
16656 16658 1
16656 16659 1
16656 16663 1
16657 16662 1
16657 16663 1
16658 16660 1
16658 16661 1
16659 16664 1
16660 16662 1
16660 16663 1
16662 16664 1
16667 16670 1
16667 16671 1
16667 16675 1
16667 16678 1
16668 16672 1
16668 16673 1
16668 16676 1
16669 16674 1
16669 16675 1
16669 16678 1
16670 16672 1
16670 16673 1
16670 16677 1
16671 16676 1
16671 16677 1
16672 16674 1
16672 16675 1
16673 16678 1
16674 16676 1
16674 16677 1
16676 16678 1
16681 16684 1
16681 16685 1
16681 16689 1
16681 16692 1
16682 16686 1
16682 16687 1
16682 16690 1
16683 16688 1
16683 16689 1
16683 16692 1
16684 16686 1
16684 16687 1
16684 16691 1
16685 16690 1
16685 16691 1
16686 16688 1
16686 16689 1
16687 16692 1
16688 16690 1
16688 16691 1
16690 16692 1
16695 16698 1
16695 16699 1
16695 16703 1
16695 16706 1
16696 16700 1
16696 16701 1
16696 16704 1
16697 16702 1
16697 16703 1
16697 16706 1
16698 16700 1
16698 16701 1
16698 16705 1
16699 16704 1
16699 16705 1
16700 16702 1
16700 16703 1
16701 16706 1
16702 16704 1
16702 16705 1
16704 16706 1
16709 16712 1
16709 16713 1
16709 16717 1
16709 16720 1
16710 16714 1
16710 16715 1
16710 16718 1
16711 16716 1
16711 16717 1
16711 16720 1
16712 16714 1
16712 16715 1
16712 16719 1
16713 16718 1
16713 16719 1
16714 16716 1
16714 16717 1
16715 16720 1
16716 16718 1
16716 16719 1
16718 16720 1
16723 16726 1
16723 16727 1
16723 16731 1
16723 16734 1
16724 16728 1
16724 16729 1
16724 16732 1
16725 16730 1
16725 16731 1
16725 16734 1
16726 16728 1
16726 16729 1
16726 16733 1
16727 16732 1
16727 16733 1
16728 16730 1
16728 16731 1
16729 16734 1
16730 16732 1
16730 16733 1
16732 16734 1
16737 16740 1
16737 16741 1
16737 16745 1
16737 16748 1
16738 16742 1
16738 16743 1
16738 16746 1
16739 16744 1
16739 16745 1
16739 16748 1
16740 16742 1
16740 16743 1
16740 16747 1
16741 16746 1
16741 16747 1
16742 16744 1
16742 16745 1
16743 16748 1
16744 16746 1
16744 16747 1
16746 16748 1
16751 16754 1
16751 16755 1
16751 16759 1
16751 16762 1
16752 16756 1
16752 16757 1
16752 16760 1
16753 16758 1
16753 16759 1
16753 16762 1
16754 16756 1
16754 16757 1
16754 16761 1
16755 16760 1
16755 16761 1
16756 16758 1
16756 16759 1
16757 16762 1
16758 16760 1
16758 16761 1
16760 16762 1
16765 16768 1
16765 16769 1
16765 16773 1
16765 16776 1
16766 16770 1
16766 16771 1
16766 16774 1
16767 16772 1
16767 16773 1
16767 16776 1
16768 16770 1
16768 16771 1
16768 16775 1
16769 16774 1
16769 16775 1
16770 16772 1
16770 16773 1
16771 16776 1
16772 16774 1
16772 16775 1
16774 16776 1
16779 16782 1
16779 16783 1
16779 16787 1
16779 16790 1
16780 16784 1
16780 16785 1
16780 16788 1
16781 16786 1
16781 16787 1
16781 16790 1
16782 16784 1
16782 16785 1
16782 16789 1
16783 16788 1
16783 16789 1
16784 16786 1
16784 16787 1
16785 16790 1
16786 16788 1
16786 16789 1
16788 16790 1
16793 16796 1
16793 16797 1
16793 16801 1
16793 16804 1
16794 16798 1
16794 16799 1
16794 16802 1
16795 16800 1
16795 16801 1
16795 16804 1
16796 16798 1
16796 16799 1
16796 16803 1
16797 16802 1
16797 16803 1
16798 16800 1
16798 16801 1
16799 16804 1
16800 16802 1
16800 16803 1
16802 16804 1
16807 16810 1
16807 16811 1
16807 16815 1
16807 16818 1
16808 16812 1
16808 16813 1
16808 16816 1
16809 16814 1
16809 16815 1
16809 16818 1
16810 16812 1
16810 16813 1
16810 16817 1
16811 16816 1
16811 16817 1
16812 16814 1
16812 16815 1
16813 16818 1
16814 16816 1
16814 16817 1
16816 16818 1
16821 16824 1
16821 16825 1
16821 16829 1
16821 16832 1
16822 16826 1
16822 16827 1
16822 16830 1
16823 16828 1
16823 16829 1
16823 16832 1
16824 16826 1
16824 16827 1
16824 16831 1
16825 16830 1
16825 16831 1
16826 16828 1
16826 16829 1
16827 16832 1
16828 16830 1
16828 16831 1
16830 16832 1
16835 16838 1
16835 16839 1
16835 16843 1
16835 16846 1
16836 16840 1
16836 16841 1
16836 16844 1
16837 16842 1
16837 16843 1
16837 16846 1
16838 16840 1
16838 16841 1
16838 16845 1
16839 16844 1
16839 16845 1
16840 16842 1
16840 16843 1
16841 16846 1
16842 16844 1
16842 16845 1
16844 16846 1
16849 16852 1
16849 16853 1
16849 16857 1
16849 16860 1
16850 16854 1
16850 16855 1
16850 16858 1
16851 16856 1
16851 16857 1
16851 16860 1
16852 16854 1
16852 16855 1
16852 16859 1
16853 16858 1
16853 16859 1
16854 16856 1
16854 16857 1
16855 16860 1
16856 16858 1
16856 16859 1
16858 16860 1
16863 16866 1
16863 16867 1
16863 16871 1
16863 16874 1
16864 16868 1
16864 16869 1
16864 16872 1
16865 16870 1
16865 16871 1
16865 16874 1
16866 16868 1
16866 16869 1
16866 16873 1
16867 16872 1
16867 16873 1
16868 16870 1
16868 16871 1
16869 16874 1
16870 16872 1
16870 16873 1
16872 16874 1
16877 16880 1
16877 16881 1
16877 16885 1
16877 16888 1
16878 16882 1
16878 16883 1
16878 16886 1
16879 16884 1
16879 16885 1
16879 16888 1
16880 16882 1
16880 16883 1
16880 16887 1
16881 16886 1
16881 16887 1
16882 16884 1
16882 16885 1
16883 16888 1
16884 16886 1
16884 16887 1
16886 16888 1
16891 16894 1
16891 16895 1
16891 16899 1
16891 16902 1
16892 16896 1
16892 16897 1
16892 16900 1
16893 16898 1
16893 16899 1
16893 16902 1
16894 16896 1
16894 16897 1
16894 16901 1
16895 16900 1
16895 16901 1
16896 16898 1
16896 16899 1
16897 16902 1
16898 16900 1
16898 16901 1
16900 16902 1
16905 16908 1
16905 16909 1
16905 16913 1
16905 16916 1
16906 16910 1
16906 16911 1
16906 16914 1
16907 16912 1
16907 16913 1
16907 16916 1
16908 16910 1
16908 16911 1
16908 16915 1
16909 16914 1
16909 16915 1
16910 16912 1
16910 16913 1
16911 16916 1
16912 16914 1
16912 16915 1
16914 16916 1
16919 16922 1
16919 16923 1
16919 16927 1
16919 16930 1
16920 16924 1
16920 16925 1
16920 16928 1
16921 16926 1
16921 16927 1
16921 16930 1
16922 16924 1
16922 16925 1
16922 16929 1
16923 16928 1
16923 16929 1
16924 16926 1
16924 16927 1
16925 16930 1
16926 16928 1
16926 16929 1
16928 16930 1
16933 16936 1
16933 16937 1
16933 16941 1
16933 16944 1
16934 16938 1
16934 16939 1
16934 16942 1
16935 16940 1
16935 16941 1
16935 16944 1
16936 16938 1
16936 16939 1
16936 16943 1
16937 16942 1
16937 16943 1
16938 16940 1
16938 16941 1
16939 16944 1
16940 16942 1
16940 16943 1
16942 16944 1
16947 16950 1
16947 16951 1
16947 16955 1
16947 16958 1
16948 16952 1
16948 16953 1
16948 16956 1
16949 16954 1
16949 16955 1
16949 16958 1
16950 16952 1
16950 16953 1
16950 16957 1
16951 16956 1
16951 16957 1
16952 16954 1
16952 16955 1
16953 16958 1
16954 16956 1
16954 16957 1
16956 16958 1
16961 16964 1
16961 16965 1
16961 16969 1
16961 16972 1
16962 16966 1
16962 16967 1
16962 16970 1
16963 16968 1
16963 16969 1
16963 16972 1
16964 16966 1
16964 16967 1
16964 16971 1
16965 16970 1
16965 16971 1
16966 16968 1
16966 16969 1
16967 16972 1
16968 16970 1
16968 16971 1
16970 16972 1
16975 16978 1
16975 16979 1
16975 16983 1
16975 16986 1
16976 16980 1
16976 16981 1
16976 16984 1
16977 16982 1
16977 16983 1
16977 16986 1
16978 16980 1
16978 16981 1
16978 16985 1
16979 16984 1
16979 16985 1
16980 16982 1
16980 16983 1
16981 16986 1
16982 16984 1
16982 16985 1
16984 16986 1
16989 16992 1
16989 16993 1
16989 16997 1
16989 17000 1
16990 16994 1
16990 16995 1
16990 16998 1
16991 16996 1
16991 16997 1
16991 17000 1
16992 16994 1
16992 16995 1
16992 16999 1
16993 16998 1
16993 16999 1
16994 16996 1
16994 16997 1
16995 17000 1
16996 16998 1
16996 16999 1
16998 17000 1
17003 17006 1
17003 17007 1
17003 17011 1
17003 17014 1
17004 17008 1
17004 17009 1
17004 17012 1
17005 17010 1
17005 17011 1
17005 17014 1
17006 17008 1
17006 17009 1
17006 17013 1
17007 17012 1
17007 17013 1
17008 17010 1
17008 17011 1
17009 17014 1
17010 17012 1
17010 17013 1
17012 17014 1
17017 17020 1
17017 17021 1
17017 17025 1
17017 17028 1
17018 17022 1
17018 17023 1
17018 17026 1
17019 17024 1
17019 17025 1
17019 17028 1
17020 17022 1
17020 17023 1
17020 17027 1
17021 17026 1
17021 17027 1
17022 17024 1
17022 17025 1
17023 17028 1
17024 17026 1
17024 17027 1
17026 17028 1
17031 17034 1
17031 17035 1
17031 17039 1
17031 17042 1
17032 17036 1
17032 17037 1
17032 17040 1
17033 17038 1
17033 17039 1
17033 17042 1
17034 17036 1
17034 17037 1
17034 17041 1
17035 17040 1
17035 17041 1
17036 17038 1
17036 17039 1
17037 17042 1
17038 17040 1
17038 17041 1
17040 17042 1
17045 17048 1
17045 17049 1
17045 17053 1
17045 17056 1
17046 17050 1
17046 17051 1
17046 17054 1
17047 17052 1
17047 17053 1
17047 17056 1
17048 17050 1
17048 17051 1
17048 17055 1
17049 17054 1
17049 17055 1
17050 17052 1
17050 17053 1
17051 17056 1
17052 17054 1
17052 17055 1
17054 17056 1
17059 17062 1
17059 17063 1
17059 17067 1
17059 17070 1
17060 17064 1
17060 17065 1
17060 17068 1
17061 17066 1
17061 17067 1
17061 17070 1
17062 17064 1
17062 17065 1
17062 17069 1
17063 17068 1
17063 17069 1
17064 17066 1
17064 17067 1
17065 17070 1
17066 17068 1
17066 17069 1
17068 17070 1
17073 17076 1
17073 17077 1
17073 17081 1
17073 17084 1
17074 17078 1
17074 17079 1
17074 17082 1
17075 17080 1
17075 17081 1
17075 17084 1
17076 17078 1
17076 17079 1
17076 17083 1
17077 17082 1
17077 17083 1
17078 17080 1
17078 17081 1
17079 17084 1
17080 17082 1
17080 17083 1
17082 17084 1
17087 17090 1
17087 17091 1
17087 17095 1
17087 17098 1
17088 17092 1
17088 17093 1
17088 17096 1
17089 17094 1
17089 17095 1
17089 17098 1
17090 17092 1
17090 17093 1
17090 17097 1
17091 17096 1
17091 17097 1
17092 17094 1
17092 17095 1
17093 17098 1
17094 17096 1
17094 17097 1
17096 17098 1
17101 17104 1
17101 17105 1
17101 17109 1
17101 17112 1
17102 17106 1
17102 17107 1
17102 17110 1
17103 17108 1
17103 17109 1
17103 17112 1
17104 17106 1
17104 17107 1
17104 17111 1
17105 17110 1
17105 17111 1
17106 17108 1
17106 17109 1
17107 17112 1
17108 17110 1
17108 17111 1
17110 17112 1
17115 17118 1
17115 17119 1
17115 17123 1
17115 17126 1
17116 17120 1
17116 17121 1
17116 17124 1
17117 17122 1
17117 17123 1
17117 17126 1
17118 17120 1
17118 17121 1
17118 17125 1
17119 17124 1
17119 17125 1
17120 17122 1
17120 17123 1
17121 17126 1
17122 17124 1
17122 17125 1
17124 17126 1
17129 17132 1
17129 17133 1
17129 17137 1
17129 17140 1
17130 17134 1
17130 17135 1
17130 17138 1
17131 17136 1
17131 17137 1
17131 17140 1
17132 17134 1
17132 17135 1
17132 17139 1
17133 17138 1
17133 17139 1
17134 17136 1
17134 17137 1
17135 17140 1
17136 17138 1
17136 17139 1
17138 17140 1
17143 17146 1
17143 17147 1
17143 17151 1
17143 17154 1
17144 17148 1
17144 17149 1
17144 17152 1
17145 17150 1
17145 17151 1
17145 17154 1
17146 17148 1
17146 17149 1
17146 17153 1
17147 17152 1
17147 17153 1
17148 17150 1
17148 17151 1
17149 17154 1
17150 17152 1
17150 17153 1
17152 17154 1
17157 17160 1
17157 17161 1
17157 17165 1
17157 17168 1
17158 17162 1
17158 17163 1
17158 17166 1
17159 17164 1
17159 17165 1
17159 17168 1
17160 17162 1
17160 17163 1
17160 17167 1
17161 17166 1
17161 17167 1
17162 17164 1
17162 17165 1
17163 17168 1
17164 17166 1
17164 17167 1
17166 17168 1
17171 17174 1
17171 17175 1
17171 17179 1
17171 17182 1
17172 17176 1
17172 17177 1
17172 17180 1
17173 17178 1
17173 17179 1
17173 17182 1
17174 17176 1
17174 17177 1
17174 17181 1
17175 17180 1
17175 17181 1
17176 17178 1
17176 17179 1
17177 17182 1
17178 17180 1
17178 17181 1
17180 17182 1
17185 17188 1
17185 17189 1
17185 17193 1
17185 17196 1
17186 17190 1
17186 17191 1
17186 17194 1
17187 17192 1
17187 17193 1
17187 17196 1
17188 17190 1
17188 17191 1
17188 17195 1
17189 17194 1
17189 17195 1
17190 17192 1
17190 17193 1
17191 17196 1
17192 17194 1
17192 17195 1
17194 17196 1
17199 17202 1
17199 17203 1
17199 17207 1
17199 17210 1
17200 17204 1
17200 17205 1
17200 17208 1
17201 17206 1
17201 17207 1
17201 17210 1
17202 17204 1
17202 17205 1
17202 17209 1
17203 17208 1
17203 17209 1
17204 17206 1
17204 17207 1
17205 17210 1
17206 17208 1
17206 17209 1
17208 17210 1
17213 17216 1
17213 17217 1
17213 17221 1
17213 17224 1
17214 17218 1
17214 17219 1
17214 17222 1
17215 17220 1
17215 17221 1
17215 17224 1
17216 17218 1
17216 17219 1
17216 17223 1
17217 17222 1
17217 17223 1
17218 17220 1
17218 17221 1
17219 17224 1
17220 17222 1
17220 17223 1
17222 17224 1
17227 17230 1
17227 17231 1
17227 17235 1
17227 17238 1
17228 17232 1
17228 17233 1
17228 17236 1
17229 17234 1
17229 17235 1
17229 17238 1
17230 17232 1
17230 17233 1
17230 17237 1
17231 17236 1
17231 17237 1
17232 17234 1
17232 17235 1
17233 17238 1
17234 17236 1
17234 17237 1
17236 17238 1
17241 17244 1
17241 17245 1
17241 17249 1
17241 17252 1
17242 17246 1
17242 17247 1
17242 17250 1
17243 17248 1
17243 17249 1
17243 17252 1
17244 17246 1
17244 17247 1
17244 17251 1
17245 17250 1
17245 17251 1
17246 17248 1
17246 17249 1
17247 17252 1
17248 17250 1
17248 17251 1
17250 17252 1
17255 17258 1
17255 17259 1
17255 17263 1
17255 17266 1
17256 17260 1
17256 17261 1
17256 17264 1
17257 17262 1
17257 17263 1
17257 17266 1
17258 17260 1
17258 17261 1
17258 17265 1
17259 17264 1
17259 17265 1
17260 17262 1
17260 17263 1
17261 17266 1
17262 17264 1
17262 17265 1
17264 17266 1
17269 17272 1
17269 17273 1
17269 17277 1
17269 17280 1
17270 17274 1
17270 17275 1
17270 17278 1
17271 17276 1
17271 17277 1
17271 17280 1
17272 17274 1
17272 17275 1
17272 17279 1
17273 17278 1
17273 17279 1
17274 17276 1
17274 17277 1
17275 17280 1
17276 17278 1
17276 17279 1
17278 17280 1
17283 17286 1
17283 17287 1
17283 17291 1
17283 17294 1
17284 17288 1
17284 17289 1
17284 17292 1
17285 17290 1
17285 17291 1
17285 17294 1
17286 17288 1
17286 17289 1
17286 17293 1
17287 17292 1
17287 17293 1
17288 17290 1
17288 17291 1
17289 17294 1
17290 17292 1
17290 17293 1
17292 17294 1
17297 17300 1
17297 17301 1
17297 17305 1
17297 17308 1
17298 17302 1
17298 17303 1
17298 17306 1
17299 17304 1
17299 17305 1
17299 17308 1
17300 17302 1
17300 17303 1
17300 17307 1
17301 17306 1
17301 17307 1
17302 17304 1
17302 17305 1
17303 17308 1
17304 17306 1
17304 17307 1
17306 17308 1
17311 17314 1
17311 17315 1
17311 17319 1
17311 17322 1
17312 17316 1
17312 17317 1
17312 17320 1
17313 17318 1
17313 17319 1
17313 17322 1
17314 17316 1
17314 17317 1
17314 17321 1
17315 17320 1
17315 17321 1
17316 17318 1
17316 17319 1
17317 17322 1
17318 17320 1
17318 17321 1
17320 17322 1
17325 17328 1
17325 17329 1
17325 17333 1
17325 17336 1
17326 17330 1
17326 17331 1
17326 17334 1
17327 17332 1
17327 17333 1
17327 17336 1
17328 17330 1
17328 17331 1
17328 17335 1
17329 17334 1
17329 17335 1
17330 17332 1
17330 17333 1
17331 17336 1
17332 17334 1
17332 17335 1
17334 17336 1
17339 17342 1
17339 17343 1
17339 17347 1
17339 17350 1
17340 17344 1
17340 17345 1
17340 17348 1
17341 17346 1
17341 17347 1
17341 17350 1
17342 17344 1
17342 17345 1
17342 17349 1
17343 17348 1
17343 17349 1
17344 17346 1
17344 17347 1
17345 17350 1
17346 17348 1
17346 17349 1
17348 17350 1
17353 17356 1
17353 17357 1
17353 17361 1
17353 17364 1
17354 17358 1
17354 17359 1
17354 17362 1
17355 17360 1
17355 17361 1
17355 17364 1
17356 17358 1
17356 17359 1
17356 17363 1
17357 17362 1
17357 17363 1
17358 17360 1
17358 17361 1
17359 17364 1
17360 17362 1
17360 17363 1
17362 17364 1
17367 17370 1
17367 17371 1
17367 17375 1
17367 17378 1
17368 17372 1
17368 17373 1
17368 17376 1
17369 17374 1
17369 17375 1
17369 17378 1
17370 17372 1
17370 17373 1
17370 17377 1
17371 17376 1
17371 17377 1
17372 17374 1
17372 17375 1
17373 17378 1
17374 17376 1
17374 17377 1
17376 17378 1
17381 17384 1
17381 17385 1
17381 17389 1
17381 17392 1
17382 17386 1
17382 17387 1
17382 17390 1
17383 17388 1
17383 17389 1
17383 17392 1
17384 17386 1
17384 17387 1
17384 17391 1
17385 17390 1
17385 17391 1
17386 17388 1
17386 17389 1
17387 17392 1
17388 17390 1
17388 17391 1
17390 17392 1
17395 17398 1
17395 17399 1
17395 17403 1
17395 17406 1
17396 17400 1
17396 17401 1
17396 17404 1
17397 17402 1
17397 17403 1
17397 17406 1
17398 17400 1
17398 17401 1
17398 17405 1
17399 17404 1
17399 17405 1
17400 17402 1
17400 17403 1
17401 17406 1
17402 17404 1
17402 17405 1
17404 17406 1
17409 17412 1
17409 17413 1
17409 17417 1
17409 17420 1
17410 17414 1
17410 17415 1
17410 17418 1
17411 17416 1
17411 17417 1
17411 17420 1
17412 17414 1
17412 17415 1
17412 17419 1
17413 17418 1
17413 17419 1
17414 17416 1
17414 17417 1
17415 17420 1
17416 17418 1
17416 17419 1
17418 17420 1
17423 17426 1
17423 17427 1
17423 17431 1
17423 17434 1
17424 17428 1
17424 17429 1
17424 17432 1
17425 17430 1
17425 17431 1
17425 17434 1
17426 17428 1
17426 17429 1
17426 17433 1
17427 17432 1
17427 17433 1
17428 17430 1
17428 17431 1
17429 17434 1
17430 17432 1
17430 17433 1
17432 17434 1
17437 17440 1
17437 17441 1
17437 17445 1
17437 17448 1
17438 17442 1
17438 17443 1
17438 17446 1
17439 17444 1
17439 17445 1
17439 17448 1
17440 17442 1
17440 17443 1
17440 17447 1
17441 17446 1
17441 17447 1
17442 17444 1
17442 17445 1
17443 17448 1
17444 17446 1
17444 17447 1
17446 17448 1
17451 17454 1
17451 17455 1
17451 17459 1
17451 17462 1
17452 17456 1
17452 17457 1
17452 17460 1
17453 17458 1
17453 17459 1
17453 17462 1
17454 17456 1
17454 17457 1
17454 17461 1
17455 17460 1
17455 17461 1
17456 17458 1
17456 17459 1
17457 17462 1
17458 17460 1
17458 17461 1
17460 17462 1
17465 17468 1
17465 17469 1
17465 17473 1
17465 17476 1
17466 17470 1
17466 17471 1
17466 17474 1
17467 17472 1
17467 17473 1
17467 17476 1
17468 17470 1
17468 17471 1
17468 17475 1
17469 17474 1
17469 17475 1
17470 17472 1
17470 17473 1
17471 17476 1
17472 17474 1
17472 17475 1
17474 17476 1
17479 17482 1
17479 17483 1
17479 17487 1
17479 17490 1
17480 17484 1
17480 17485 1
17480 17488 1
17481 17486 1
17481 17487 1
17481 17490 1
17482 17484 1
17482 17485 1
17482 17489 1
17483 17488 1
17483 17489 1
17484 17486 1
17484 17487 1
17485 17490 1
17486 17488 1
17486 17489 1
17488 17490 1
17493 17496 1
17493 17497 1
17493 17501 1
17493 17504 1
17494 17498 1
17494 17499 1
17494 17502 1
17495 17500 1
17495 17501 1
17495 17504 1
17496 17498 1
17496 17499 1
17496 17503 1
17497 17502 1
17497 17503 1
17498 17500 1
17498 17501 1
17499 17504 1
17500 17502 1
17500 17503 1
17502 17504 1
17507 17510 1
17507 17511 1
17507 17515 1
17507 17518 1
17508 17512 1
17508 17513 1
17508 17516 1
17509 17514 1
17509 17515 1
17509 17518 1
17510 17512 1
17510 17513 1
17510 17517 1
17511 17516 1
17511 17517 1
17512 17514 1
17512 17515 1
17513 17518 1
17514 17516 1
17514 17517 1
17516 17518 1
17521 17524 1
17521 17525 1
17521 17529 1
17521 17532 1
17522 17526 1
17522 17527 1
17522 17530 1
17523 17528 1
17523 17529 1
17523 17532 1
17524 17526 1
17524 17527 1
17524 17531 1
17525 17530 1
17525 17531 1
17526 17528 1
17526 17529 1
17527 17532 1
17528 17530 1
17528 17531 1
17530 17532 1
17535 17538 1
17535 17539 1
17535 17543 1
17535 17546 1
17536 17540 1
17536 17541 1
17536 17544 1
17537 17542 1
17537 17543 1
17537 17546 1
17538 17540 1
17538 17541 1
17538 17545 1
17539 17544 1
17539 17545 1
17540 17542 1
17540 17543 1
17541 17546 1
17542 17544 1
17542 17545 1
17544 17546 1
17549 17552 1
17549 17553 1
17549 17557 1
17549 17560 1
17550 17554 1
17550 17555 1
17550 17558 1
17551 17556 1
17551 17557 1
17551 17560 1
17552 17554 1
17552 17555 1
17552 17559 1
17553 17558 1
17553 17559 1
17554 17556 1
17554 17557 1
17555 17560 1
17556 17558 1
17556 17559 1
17558 17560 1
17563 17566 1
17563 17567 1
17563 17571 1
17563 17574 1
17564 17568 1
17564 17569 1
17564 17572 1
17565 17570 1
17565 17571 1
17565 17574 1
17566 17568 1
17566 17569 1
17566 17573 1
17567 17572 1
17567 17573 1
17568 17570 1
17568 17571 1
17569 17574 1
17570 17572 1
17570 17573 1
17572 17574 1
17577 17580 1
17577 17581 1
17577 17585 1
17577 17588 1
17578 17582 1
17578 17583 1
17578 17586 1
17579 17584 1
17579 17585 1
17579 17588 1
17580 17582 1
17580 17583 1
17580 17587 1
17581 17586 1
17581 17587 1
17582 17584 1
17582 17585 1
17583 17588 1
17584 17586 1
17584 17587 1
17586 17588 1
17591 17594 1
17591 17595 1
17591 17599 1
17591 17602 1
17592 17596 1
17592 17597 1
17592 17600 1
17593 17598 1
17593 17599 1
17593 17602 1
17594 17596 1
17594 17597 1
17594 17601 1
17595 17600 1
17595 17601 1
17596 17598 1
17596 17599 1
17597 17602 1
17598 17600 1
17598 17601 1
17600 17602 1
17605 17608 1
17605 17609 1
17605 17613 1
17605 17616 1
17606 17610 1
17606 17611 1
17606 17614 1
17607 17612 1
17607 17613 1
17607 17616 1
17608 17610 1
17608 17611 1
17608 17615 1
17609 17614 1
17609 17615 1
17610 17612 1
17610 17613 1
17611 17616 1
17612 17614 1
17612 17615 1
17614 17616 1
17619 17622 1
17619 17623 1
17619 17627 1
17619 17630 1
17620 17624 1
17620 17625 1
17620 17628 1
17621 17626 1
17621 17627 1
17621 17630 1
17622 17624 1
17622 17625 1
17622 17629 1
17623 17628 1
17623 17629 1
17624 17626 1
17624 17627 1
17625 17630 1
17626 17628 1
17626 17629 1
17628 17630 1
17633 17636 1
17633 17637 1
17633 17641 1
17633 17644 1
17634 17638 1
17634 17639 1
17634 17642 1
17635 17640 1
17635 17641 1
17635 17644 1
17636 17638 1
17636 17639 1
17636 17643 1
17637 17642 1
17637 17643 1
17638 17640 1
17638 17641 1
17639 17644 1
17640 17642 1
17640 17643 1
17642 17644 1
17647 17650 1
17647 17651 1
17647 17655 1
17647 17658 1
17648 17652 1
17648 17653 1
17648 17656 1
17649 17654 1
17649 17655 1
17649 17658 1
17650 17652 1
17650 17653 1
17650 17657 1
17651 17656 1
17651 17657 1
17652 17654 1
17652 17655 1
17653 17658 1
17654 17656 1
17654 17657 1
17656 17658 1
17661 17664 1
17661 17665 1
17661 17669 1
17661 17672 1
17662 17666 1
17662 17667 1
17662 17670 1
17663 17668 1
17663 17669 1
17663 17672 1
17664 17666 1
17664 17667 1
17664 17671 1
17665 17670 1
17665 17671 1
17666 17668 1
17666 17669 1
17667 17672 1
17668 17670 1
17668 17671 1
17670 17672 1
17675 17678 1
17675 17679 1
17675 17683 1
17675 17686 1
17676 17680 1
17676 17681 1
17676 17684 1
17677 17682 1
17677 17683 1
17677 17686 1
17678 17680 1
17678 17681 1
17678 17685 1
17679 17684 1
17679 17685 1
17680 17682 1
17680 17683 1
17681 17686 1
17682 17684 1
17682 17685 1
17684 17686 1
17689 17692 1
17689 17693 1
17689 17697 1
17689 17700 1
17690 17694 1
17690 17695 1
17690 17698 1
17691 17696 1
17691 17697 1
17691 17700 1
17692 17694 1
17692 17695 1
17692 17699 1
17693 17698 1
17693 17699 1
17694 17696 1
17694 17697 1
17695 17700 1
17696 17698 1
17696 17699 1
17698 17700 1
17703 17706 1
17703 17707 1
17703 17711 1
17703 17714 1
17704 17708 1
17704 17709 1
17704 17712 1
17705 17710 1
17705 17711 1
17705 17714 1
17706 17708 1
17706 17709 1
17706 17713 1
17707 17712 1
17707 17713 1
17708 17710 1
17708 17711 1
17709 17714 1
17710 17712 1
17710 17713 1
17712 17714 1
17717 17720 1
17717 17721 1
17717 17725 1
17717 17728 1
17718 17722 1
17718 17723 1
17718 17726 1
17719 17724 1
17719 17725 1
17719 17728 1
17720 17722 1
17720 17723 1
17720 17727 1
17721 17726 1
17721 17727 1
17722 17724 1
17722 17725 1
17723 17728 1
17724 17726 1
17724 17727 1
17726 17728 1
17731 17734 1
17731 17735 1
17731 17739 1
17731 17742 1
17732 17736 1
17732 17737 1
17732 17740 1
17733 17738 1
17733 17739 1
17733 17742 1
17734 17736 1
17734 17737 1
17734 17741 1
17735 17740 1
17735 17741 1
17736 17738 1
17736 17739 1
17737 17742 1
17738 17740 1
17738 17741 1
17740 17742 1
17745 17748 1
17745 17749 1
17745 17753 1
17745 17756 1
17746 17750 1
17746 17751 1
17746 17754 1
17747 17752 1
17747 17753 1
17747 17756 1
17748 17750 1
17748 17751 1
17748 17755 1
17749 17754 1
17749 17755 1
17750 17752 1
17750 17753 1
17751 17756 1
17752 17754 1
17752 17755 1
17754 17756 1
17759 17762 1
17759 17763 1
17759 17767 1
17759 17770 1
17760 17764 1
17760 17765 1
17760 17768 1
17761 17766 1
17761 17767 1
17761 17770 1
17762 17764 1
17762 17765 1
17762 17769 1
17763 17768 1
17763 17769 1
17764 17766 1
17764 17767 1
17765 17770 1
17766 17768 1
17766 17769 1
17768 17770 1
17773 17776 1
17773 17777 1
17773 17781 1
17773 17784 1
17774 17778 1
17774 17779 1
17774 17782 1
17775 17780 1
17775 17781 1
17775 17784 1
17776 17778 1
17776 17779 1
17776 17783 1
17777 17782 1
17777 17783 1
17778 17780 1
17778 17781 1
17779 17784 1
17780 17782 1
17780 17783 1
17782 17784 1
17787 17790 1
17787 17791 1
17787 17795 1
17787 17798 1
17788 17792 1
17788 17793 1
17788 17796 1
17789 17794 1
17789 17795 1
17789 17798 1
17790 17792 1
17790 17793 1
17790 17797 1
17791 17796 1
17791 17797 1
17792 17794 1
17792 17795 1
17793 17798 1
17794 17796 1
17794 17797 1
17796 17798 1
17801 17804 1
17801 17805 1
17801 17809 1
17801 17812 1
17802 17806 1
17802 17807 1
17802 17810 1
17803 17808 1
17803 17809 1
17803 17812 1
17804 17806 1
17804 17807 1
17804 17811 1
17805 17810 1
17805 17811 1
17806 17808 1
17806 17809 1
17807 17812 1
17808 17810 1
17808 17811 1
17810 17812 1
17815 17818 1
17815 17819 1
17815 17823 1
17815 17826 1
17816 17820 1
17816 17821 1
17816 17824 1
17817 17822 1
17817 17823 1
17817 17826 1
17818 17820 1
17818 17821 1
17818 17825 1
17819 17824 1
17819 17825 1
17820 17822 1
17820 17823 1
17821 17826 1
17822 17824 1
17822 17825 1
17824 17826 1
17829 17832 1
17829 17833 1
17829 17837 1
17829 17840 1
17830 17834 1
17830 17835 1
17830 17838 1
17831 17836 1
17831 17837 1
17831 17840 1
17832 17834 1
17832 17835 1
17832 17839 1
17833 17838 1
17833 17839 1
17834 17836 1
17834 17837 1
17835 17840 1
17836 17838 1
17836 17839 1
17838 17840 1
17843 17846 1
17843 17847 1
17843 17851 1
17843 17854 1
17844 17848 1
17844 17849 1
17844 17852 1
17845 17850 1
17845 17851 1
17845 17854 1
17846 17848 1
17846 17849 1
17846 17853 1
17847 17852 1
17847 17853 1
17848 17850 1
17848 17851 1
17849 17854 1
17850 17852 1
17850 17853 1
17852 17854 1
17857 17860 1
17857 17861 1
17857 17865 1
17857 17868 1
17858 17862 1
17858 17863 1
17858 17866 1
17859 17864 1
17859 17865 1
17859 17868 1
17860 17862 1
17860 17863 1
17860 17867 1
17861 17866 1
17861 17867 1
17862 17864 1
17862 17865 1
17863 17868 1
17864 17866 1
17864 17867 1
17866 17868 1
17871 17874 1
17871 17875 1
17871 17879 1
17871 17882 1
17872 17876 1
17872 17877 1
17872 17880 1
17873 17878 1
17873 17879 1
17873 17882 1
17874 17876 1
17874 17877 1
17874 17881 1
17875 17880 1
17875 17881 1
17876 17878 1
17876 17879 1
17877 17882 1
17878 17880 1
17878 17881 1
17880 17882 1
17885 17888 1
17885 17889 1
17885 17893 1
17885 17896 1
17886 17890 1
17886 17891 1
17886 17894 1
17887 17892 1
17887 17893 1
17887 17896 1
17888 17890 1
17888 17891 1
17888 17895 1
17889 17894 1
17889 17895 1
17890 17892 1
17890 17893 1
17891 17896 1
17892 17894 1
17892 17895 1
17894 17896 1
17899 17902 1
17899 17903 1
17899 17907 1
17899 17910 1
17900 17904 1
17900 17905 1
17900 17908 1
17901 17906 1
17901 17907 1
17901 17910 1
17902 17904 1
17902 17905 1
17902 17909 1
17903 17908 1
17903 17909 1
17904 17906 1
17904 17907 1
17905 17910 1
17906 17908 1
17906 17909 1
17908 17910 1
17913 17916 1
17913 17917 1
17913 17921 1
17913 17924 1
17914 17918 1
17914 17919 1
17914 17922 1
17915 17920 1
17915 17921 1
17915 17924 1
17916 17918 1
17916 17919 1
17916 17923 1
17917 17922 1
17917 17923 1
17918 17920 1
17918 17921 1
17919 17924 1
17920 17922 1
17920 17923 1
17922 17924 1
17927 17930 1
17927 17931 1
17927 17935 1
17927 17938 1
17928 17932 1
17928 17933 1
17928 17936 1
17929 17934 1
17929 17935 1
17929 17938 1
17930 17932 1
17930 17933 1
17930 17937 1
17931 17936 1
17931 17937 1
17932 17934 1
17932 17935 1
17933 17938 1
17934 17936 1
17934 17937 1
17936 17938 1
17941 17944 1
17941 17945 1
17941 17949 1
17941 17952 1
17942 17946 1
17942 17947 1
17942 17950 1
17943 17948 1
17943 17949 1
17943 17952 1
17944 17946 1
17944 17947 1
17944 17951 1
17945 17950 1
17945 17951 1
17946 17948 1
17946 17949 1
17947 17952 1
17948 17950 1
17948 17951 1
17950 17952 1
17955 17958 1
17955 17959 1
17955 17963 1
17955 17966 1
17956 17960 1
17956 17961 1
17956 17964 1
17957 17962 1
17957 17963 1
17957 17966 1
17958 17960 1
17958 17961 1
17958 17965 1
17959 17964 1
17959 17965 1
17960 17962 1
17960 17963 1
17961 17966 1
17962 17964 1
17962 17965 1
17964 17966 1
17969 17972 1
17969 17973 1
17969 17977 1
17969 17980 1
17970 17974 1
17970 17975 1
17970 17978 1
17971 17976 1
17971 17977 1
17971 17980 1
17972 17974 1
17972 17975 1
17972 17979 1
17973 17978 1
17973 17979 1
17974 17976 1
17974 17977 1
17975 17980 1
17976 17978 1
17976 17979 1
17978 17980 1
17983 17986 1
17983 17987 1
17983 17991 1
17983 17994 1
17984 17988 1
17984 17989 1
17984 17992 1
17985 17990 1
17985 17991 1
17985 17994 1
17986 17988 1
17986 17989 1
17986 17993 1
17987 17992 1
17987 17993 1
17988 17990 1
17988 17991 1
17989 17994 1
17990 17992 1
17990 17993 1
17992 17994 1
17997 18000 1
17997 18001 1
17997 18005 1
17997 18008 1
17998 18002 1
17998 18003 1
17998 18006 1
17999 18004 1
17999 18005 1
17999 18008 1
18000 18002 1
18000 18003 1
18000 18007 1
18001 18006 1
18001 18007 1
18002 18004 1
18002 18005 1
18003 18008 1
18004 18006 1
18004 18007 1
18006 18008 1
18011 18014 1
18011 18015 1
18011 18019 1
18011 18022 1
18012 18016 1
18012 18017 1
18012 18020 1
18013 18018 1
18013 18019 1
18013 18022 1
18014 18016 1
18014 18017 1
18014 18021 1
18015 18020 1
18015 18021 1
18016 18018 1
18016 18019 1
18017 18022 1
18018 18020 1
18018 18021 1
18020 18022 1
18025 18028 1
18025 18029 1
18025 18033 1
18025 18036 1
18026 18030 1
18026 18031 1
18026 18034 1
18027 18032 1
18027 18033 1
18027 18036 1
18028 18030 1
18028 18031 1
18028 18035 1
18029 18034 1
18029 18035 1
18030 18032 1
18030 18033 1
18031 18036 1
18032 18034 1
18032 18035 1
18034 18036 1
18039 18042 1
18039 18043 1
18039 18047 1
18039 18050 1
18040 18044 1
18040 18045 1
18040 18048 1
18041 18046 1
18041 18047 1
18041 18050 1
18042 18044 1
18042 18045 1
18042 18049 1
18043 18048 1
18043 18049 1
18044 18046 1
18044 18047 1
18045 18050 1
18046 18048 1
18046 18049 1
18048 18050 1
18053 18056 1
18053 18057 1
18053 18061 1
18053 18064 1
18054 18058 1
18054 18059 1
18054 18062 1
18055 18060 1
18055 18061 1
18055 18064 1
18056 18058 1
18056 18059 1
18056 18063 1
18057 18062 1
18057 18063 1
18058 18060 1
18058 18061 1
18059 18064 1
18060 18062 1
18060 18063 1
18062 18064 1
18067 18070 1
18067 18071 1
18067 18075 1
18067 18078 1
18068 18072 1
18068 18073 1
18068 18076 1
18069 18074 1
18069 18075 1
18069 18078 1
18070 18072 1
18070 18073 1
18070 18077 1
18071 18076 1
18071 18077 1
18072 18074 1
18072 18075 1
18073 18078 1
18074 18076 1
18074 18077 1
18076 18078 1
18081 18084 1
18081 18085 1
18081 18089 1
18081 18092 1
18082 18086 1
18082 18087 1
18082 18090 1
18083 18088 1
18083 18089 1
18083 18092 1
18084 18086 1
18084 18087 1
18084 18091 1
18085 18090 1
18085 18091 1
18086 18088 1
18086 18089 1
18087 18092 1
18088 18090 1
18088 18091 1
18090 18092 1
18095 18098 1
18095 18099 1
18095 18103 1
18095 18106 1
18096 18100 1
18096 18101 1
18096 18104 1
18097 18102 1
18097 18103 1
18097 18106 1
18098 18100 1
18098 18101 1
18098 18105 1
18099 18104 1
18099 18105 1
18100 18102 1
18100 18103 1
18101 18106 1
18102 18104 1
18102 18105 1
18104 18106 1
18109 18112 1
18109 18113 1
18109 18117 1
18109 18120 1
18110 18114 1
18110 18115 1
18110 18118 1
18111 18116 1
18111 18117 1
18111 18120 1
18112 18114 1
18112 18115 1
18112 18119 1
18113 18118 1
18113 18119 1
18114 18116 1
18114 18117 1
18115 18120 1
18116 18118 1
18116 18119 1
18118 18120 1
18123 18126 1
18123 18127 1
18123 18131 1
18123 18134 1
18124 18128 1
18124 18129 1
18124 18132 1
18125 18130 1
18125 18131 1
18125 18134 1
18126 18128 1
18126 18129 1
18126 18133 1
18127 18132 1
18127 18133 1
18128 18130 1
18128 18131 1
18129 18134 1
18130 18132 1
18130 18133 1
18132 18134 1
18137 18140 1
18137 18141 1
18137 18145 1
18137 18148 1
18138 18142 1
18138 18143 1
18138 18146 1
18139 18144 1
18139 18145 1
18139 18148 1
18140 18142 1
18140 18143 1
18140 18147 1
18141 18146 1
18141 18147 1
18142 18144 1
18142 18145 1
18143 18148 1
18144 18146 1
18144 18147 1
18146 18148 1
18151 18154 1
18151 18155 1
18151 18159 1
18151 18162 1
18152 18156 1
18152 18157 1
18152 18160 1
18153 18158 1
18153 18159 1
18153 18162 1
18154 18156 1
18154 18157 1
18154 18161 1
18155 18160 1
18155 18161 1
18156 18158 1
18156 18159 1
18157 18162 1
18158 18160 1
18158 18161 1
18160 18162 1
18165 18168 1
18165 18169 1
18165 18173 1
18165 18176 1
18166 18170 1
18166 18171 1
18166 18174 1
18167 18172 1
18167 18173 1
18167 18176 1
18168 18170 1
18168 18171 1
18168 18175 1
18169 18174 1
18169 18175 1
18170 18172 1
18170 18173 1
18171 18176 1
18172 18174 1
18172 18175 1
18174 18176 1
18179 18182 1
18179 18183 1
18179 18187 1
18179 18190 1
18180 18184 1
18180 18185 1
18180 18188 1
18181 18186 1
18181 18187 1
18181 18190 1
18182 18184 1
18182 18185 1
18182 18189 1
18183 18188 1
18183 18189 1
18184 18186 1
18184 18187 1
18185 18190 1
18186 18188 1
18186 18189 1
18188 18190 1
18193 18196 1
18193 18197 1
18193 18201 1
18193 18204 1
18194 18198 1
18194 18199 1
18194 18202 1
18195 18200 1
18195 18201 1
18195 18204 1
18196 18198 1
18196 18199 1
18196 18203 1
18197 18202 1
18197 18203 1
18198 18200 1
18198 18201 1
18199 18204 1
18200 18202 1
18200 18203 1
18202 18204 1
18207 18210 1
18207 18211 1
18207 18215 1
18207 18218 1
18208 18212 1
18208 18213 1
18208 18216 1
18209 18214 1
18209 18215 1
18209 18218 1
18210 18212 1
18210 18213 1
18210 18217 1
18211 18216 1
18211 18217 1
18212 18214 1
18212 18215 1
18213 18218 1
18214 18216 1
18214 18217 1
18216 18218 1
18221 18224 1
18221 18225 1
18221 18229 1
18221 18232 1
18222 18226 1
18222 18227 1
18222 18230 1
18223 18228 1
18223 18229 1
18223 18232 1
18224 18226 1
18224 18227 1
18224 18231 1
18225 18230 1
18225 18231 1
18226 18228 1
18226 18229 1
18227 18232 1
18228 18230 1
18228 18231 1
18230 18232 1
18235 18238 1
18235 18239 1
18235 18243 1
18235 18246 1
18236 18240 1
18236 18241 1
18236 18244 1
18237 18242 1
18237 18243 1
18237 18246 1
18238 18240 1
18238 18241 1
18238 18245 1
18239 18244 1
18239 18245 1
18240 18242 1
18240 18243 1
18241 18246 1
18242 18244 1
18242 18245 1
18244 18246 1
18249 18252 1
18249 18253 1
18249 18257 1
18249 18260 1
18250 18254 1
18250 18255 1
18250 18258 1
18251 18256 1
18251 18257 1
18251 18260 1
18252 18254 1
18252 18255 1
18252 18259 1
18253 18258 1
18253 18259 1
18254 18256 1
18254 18257 1
18255 18260 1
18256 18258 1
18256 18259 1
18258 18260 1
18263 18266 1
18263 18267 1
18263 18271 1
18263 18274 1
18264 18268 1
18264 18269 1
18264 18272 1
18265 18270 1
18265 18271 1
18265 18274 1
18266 18268 1
18266 18269 1
18266 18273 1
18267 18272 1
18267 18273 1
18268 18270 1
18268 18271 1
18269 18274 1
18270 18272 1
18270 18273 1
18272 18274 1
18277 18280 1
18277 18281 1
18277 18285 1
18277 18288 1
18278 18282 1
18278 18283 1
18278 18286 1
18279 18284 1
18279 18285 1
18279 18288 1
18280 18282 1
18280 18283 1
18280 18287 1
18281 18286 1
18281 18287 1
18282 18284 1
18282 18285 1
18283 18288 1
18284 18286 1
18284 18287 1
18286 18288 1
18291 18294 1
18291 18295 1
18291 18299 1
18291 18302 1
18292 18296 1
18292 18297 1
18292 18300 1
18293 18298 1
18293 18299 1
18293 18302 1
18294 18296 1
18294 18297 1
18294 18301 1
18295 18300 1
18295 18301 1
18296 18298 1
18296 18299 1
18297 18302 1
18298 18300 1
18298 18301 1
18300 18302 1
18305 18308 1
18305 18309 1
18305 18313 1
18305 18316 1
18306 18310 1
18306 18311 1
18306 18314 1
18307 18312 1
18307 18313 1
18307 18316 1
18308 18310 1
18308 18311 1
18308 18315 1
18309 18314 1
18309 18315 1
18310 18312 1
18310 18313 1
18311 18316 1
18312 18314 1
18312 18315 1
18314 18316 1
18319 18322 1
18319 18323 1
18319 18327 1
18319 18330 1
18320 18324 1
18320 18325 1
18320 18328 1
18321 18326 1
18321 18327 1
18321 18330 1
18322 18324 1
18322 18325 1
18322 18329 1
18323 18328 1
18323 18329 1
18324 18326 1
18324 18327 1
18325 18330 1
18326 18328 1
18326 18329 1
18328 18330 1
18333 18336 1
18333 18337 1
18333 18341 1
18333 18344 1
18334 18338 1
18334 18339 1
18334 18342 1
18335 18340 1
18335 18341 1
18335 18344 1
18336 18338 1
18336 18339 1
18336 18343 1
18337 18342 1
18337 18343 1
18338 18340 1
18338 18341 1
18339 18344 1
18340 18342 1
18340 18343 1
18342 18344 1
18347 18350 1
18347 18351 1
18347 18355 1
18347 18358 1
18348 18352 1
18348 18353 1
18348 18356 1
18349 18354 1
18349 18355 1
18349 18358 1
18350 18352 1
18350 18353 1
18350 18357 1
18351 18356 1
18351 18357 1
18352 18354 1
18352 18355 1
18353 18358 1
18354 18356 1
18354 18357 1
18356 18358 1
18361 18364 1
18361 18365 1
18361 18369 1
18361 18372 1
18362 18366 1
18362 18367 1
18362 18370 1
18363 18368 1
18363 18369 1
18363 18372 1
18364 18366 1
18364 18367 1
18364 18371 1
18365 18370 1
18365 18371 1
18366 18368 1
18366 18369 1
18367 18372 1
18368 18370 1
18368 18371 1
18370 18372 1
18375 18378 1
18375 18379 1
18375 18383 1
18375 18386 1
18376 18380 1
18376 18381 1
18376 18384 1
18377 18382 1
18377 18383 1
18377 18386 1
18378 18380 1
18378 18381 1
18378 18385 1
18379 18384 1
18379 18385 1
18380 18382 1
18380 18383 1
18381 18386 1
18382 18384 1
18382 18385 1
18384 18386 1
18389 18392 1
18389 18393 1
18389 18397 1
18389 18400 1
18390 18394 1
18390 18395 1
18390 18398 1
18391 18396 1
18391 18397 1
18391 18400 1
18392 18394 1
18392 18395 1
18392 18399 1
18393 18398 1
18393 18399 1
18394 18396 1
18394 18397 1
18395 18400 1
18396 18398 1
18396 18399 1
18398 18400 1
18403 18406 1
18403 18407 1
18403 18411 1
18403 18414 1
18404 18408 1
18404 18409 1
18404 18412 1
18405 18410 1
18405 18411 1
18405 18414 1
18406 18408 1
18406 18409 1
18406 18413 1
18407 18412 1
18407 18413 1
18408 18410 1
18408 18411 1
18409 18414 1
18410 18412 1
18410 18413 1
18412 18414 1
18417 18420 1
18417 18421 1
18417 18425 1
18417 18428 1
18418 18422 1
18418 18423 1
18418 18426 1
18419 18424 1
18419 18425 1
18419 18428 1
18420 18422 1
18420 18423 1
18420 18427 1
18421 18426 1
18421 18427 1
18422 18424 1
18422 18425 1
18423 18428 1
18424 18426 1
18424 18427 1
18426 18428 1
18431 18434 1
18431 18435 1
18431 18439 1
18431 18442 1
18432 18436 1
18432 18437 1
18432 18440 1
18433 18438 1
18433 18439 1
18433 18442 1
18434 18436 1
18434 18437 1
18434 18441 1
18435 18440 1
18435 18441 1
18436 18438 1
18436 18439 1
18437 18442 1
18438 18440 1
18438 18441 1
18440 18442 1
18445 18448 1
18445 18449 1
18445 18453 1
18445 18456 1
18446 18450 1
18446 18451 1
18446 18454 1
18447 18452 1
18447 18453 1
18447 18456 1
18448 18450 1
18448 18451 1
18448 18455 1
18449 18454 1
18449 18455 1
18450 18452 1
18450 18453 1
18451 18456 1
18452 18454 1
18452 18455 1
18454 18456 1
18459 18462 1
18459 18463 1
18459 18467 1
18459 18470 1
18460 18464 1
18460 18465 1
18460 18468 1
18461 18466 1
18461 18467 1
18461 18470 1
18462 18464 1
18462 18465 1
18462 18469 1
18463 18468 1
18463 18469 1
18464 18466 1
18464 18467 1
18465 18470 1
18466 18468 1
18466 18469 1
18468 18470 1
18471 18474 1
18471 18475 1
18471 18479 1
18471 18482 1
18472 18476 1
18472 18477 1
18472 18480 1
18473 18478 1
18473 18479 1
18473 18482 1
18474 18476 1
18474 18477 1
18474 18481 1
18475 18480 1
18475 18481 1
18476 18478 1
18476 18479 1
18477 18482 1
18478 18480 1
18478 18481 1
18480 18482 1
18483 18486 1
18483 18487 1
18483 18491 1
18483 18494 1
18484 18488 1
18484 18489 1
18484 18492 1
18485 18490 1
18485 18491 1
18485 18494 1
18486 18488 1
18486 18489 1
18486 18493 1
18487 18492 1
18487 18493 1
18488 18490 1
18488 18491 1
18489 18494 1
18490 18492 1
18490 18493 1
18492 18494 1
18495 18498 1
18495 18499 1
18495 18503 1
18495 18506 1
18496 18500 1
18496 18501 1
18496 18504 1
18497 18502 1
18497 18503 1
18497 18506 1
18498 18500 1
18498 18501 1
18498 18505 1
18499 18504 1
18499 18505 1
18500 18502 1
18500 18503 1
18501 18506 1
18502 18504 1
18502 18505 1
18504 18506 1
18507 18510 1
18507 18511 1
18507 18515 1
18507 18518 1
18508 18512 1
18508 18513 1
18508 18516 1
18509 18514 1
18509 18515 1
18509 18518 1
18510 18512 1
18510 18513 1
18510 18517 1
18511 18516 1
18511 18517 1
18512 18514 1
18512 18515 1
18513 18518 1
18514 18516 1
18514 18517 1
18516 18518 1
18519 18522 1
18519 18523 1
18519 18527 1
18519 18530 1
18520 18524 1
18520 18525 1
18520 18528 1
18521 18526 1
18521 18527 1
18521 18530 1
18522 18524 1
18522 18525 1
18522 18529 1
18523 18528 1
18523 18529 1
18524 18526 1
18524 18527 1
18525 18530 1
18526 18528 1
18526 18529 1
18528 18530 1
18531 18534 1
18531 18535 1
18531 18539 1
18531 18542 1
18532 18536 1
18532 18537 1
18532 18540 1
18533 18538 1
18533 18539 1
18533 18542 1
18534 18536 1
18534 18537 1
18534 18541 1
18535 18540 1
18535 18541 1
18536 18538 1
18536 18539 1
18537 18542 1
18538 18540 1
18538 18541 1
18540 18542 1
18543 18546 1
18543 18547 1
18543 18551 1
18543 18554 1
18544 18548 1
18544 18549 1
18544 18552 1
18545 18550 1
18545 18551 1
18545 18554 1
18546 18548 1
18546 18549 1
18546 18553 1
18547 18552 1
18547 18553 1
18548 18550 1
18548 18551 1
18549 18554 1
18550 18552 1
18550 18553 1
18552 18554 1
18555 18558 1
18555 18559 1
18555 18563 1
18555 18566 1
18556 18560 1
18556 18561 1
18556 18564 1
18557 18562 1
18557 18563 1
18557 18566 1
18558 18560 1
18558 18561 1
18558 18565 1
18559 18564 1
18559 18565 1
18560 18562 1
18560 18563 1
18561 18566 1
18562 18564 1
18562 18565 1
18564 18566 1
18567 18570 1
18567 18571 1
18567 18575 1
18567 18578 1
18568 18572 1
18568 18573 1
18568 18576 1
18569 18574 1
18569 18575 1
18569 18578 1
18570 18572 1
18570 18573 1
18570 18577 1
18571 18576 1
18571 18577 1
18572 18574 1
18572 18575 1
18573 18578 1
18574 18576 1
18574 18577 1
18576 18578 1
18579 18582 1
18579 18583 1
18579 18587 1
18579 18590 1
18580 18584 1
18580 18585 1
18580 18588 1
18581 18586 1
18581 18587 1
18581 18590 1
18582 18584 1
18582 18585 1
18582 18589 1
18583 18588 1
18583 18589 1
18584 18586 1
18584 18587 1
18585 18590 1
18586 18588 1
18586 18589 1
18588 18590 1
18591 18594 1
18591 18595 1
18591 18599 1
18591 18602 1
18592 18596 1
18592 18597 1
18592 18600 1
18593 18598 1
18593 18599 1
18593 18602 1
18594 18596 1
18594 18597 1
18594 18601 1
18595 18600 1
18595 18601 1
18596 18598 1
18596 18599 1
18597 18602 1
18598 18600 1
18598 18601 1
18600 18602 1
18603 18606 1
18603 18607 1
18603 18611 1
18603 18614 1
18604 18608 1
18604 18609 1
18604 18612 1
18605 18610 1
18605 18611 1
18605 18614 1
18606 18608 1
18606 18609 1
18606 18613 1
18607 18612 1
18607 18613 1
18608 18610 1
18608 18611 1
18609 18614 1
18610 18612 1
18610 18613 1
18612 18614 1
18615 18618 1
18615 18619 1
18615 18623 1
18615 18626 1
18616 18620 1
18616 18621 1
18616 18624 1
18617 18622 1
18617 18623 1
18617 18626 1
18618 18620 1
18618 18621 1
18618 18625 1
18619 18624 1
18619 18625 1
18620 18622 1
18620 18623 1
18621 18626 1
18622 18624 1
18622 18625 1
18624 18626 1
18627 18630 1
18627 18631 1
18627 18635 1
18627 18638 1
18628 18632 1
18628 18633 1
18628 18636 1
18629 18634 1
18629 18635 1
18629 18638 1
18630 18632 1
18630 18633 1
18630 18637 1
18631 18636 1
18631 18637 1
18632 18634 1
18632 18635 1
18633 18638 1
18634 18636 1
18634 18637 1
18636 18638 1
18639 18642 1
18639 18643 1
18639 18647 1
18639 18650 1
18640 18644 1
18640 18645 1
18640 18648 1
18641 18646 1
18641 18647 1
18641 18650 1
18642 18644 1
18642 18645 1
18642 18649 1
18643 18648 1
18643 18649 1
18644 18646 1
18644 18647 1
18645 18650 1
18646 18648 1
18646 18649 1
18648 18650 1
18651 18654 1
18651 18655 1
18651 18659 1
18651 18662 1
18652 18656 1
18652 18657 1
18652 18660 1
18653 18658 1
18653 18659 1
18653 18662 1
18654 18656 1
18654 18657 1
18654 18661 1
18655 18660 1
18655 18661 1
18656 18658 1
18656 18659 1
18657 18662 1
18658 18660 1
18658 18661 1
18660 18662 1
18663 18666 1
18663 18667 1
18663 18671 1
18663 18674 1
18664 18668 1
18664 18669 1
18664 18672 1
18665 18670 1
18665 18671 1
18665 18674 1
18666 18668 1
18666 18669 1
18666 18673 1
18667 18672 1
18667 18673 1
18668 18670 1
18668 18671 1
18669 18674 1
18670 18672 1
18670 18673 1
18672 18674 1
18675 18678 1
18675 18679 1
18675 18683 1
18675 18686 1
18676 18680 1
18676 18681 1
18676 18684 1
18677 18682 1
18677 18683 1
18677 18686 1
18678 18680 1
18678 18681 1
18678 18685 1
18679 18684 1
18679 18685 1
18680 18682 1
18680 18683 1
18681 18686 1
18682 18684 1
18682 18685 1
18684 18686 1
18687 18690 1
18687 18691 1
18687 18695 1
18687 18698 1
18688 18692 1
18688 18693 1
18688 18696 1
18689 18694 1
18689 18695 1
18689 18698 1
18690 18692 1
18690 18693 1
18690 18697 1
18691 18696 1
18691 18697 1
18692 18694 1
18692 18695 1
18693 18698 1
18694 18696 1
18694 18697 1
18696 18698 1
18699 18702 1
18699 18703 1
18699 18707 1
18699 18710 1
18700 18704 1
18700 18705 1
18700 18708 1
18701 18706 1
18701 18707 1
18701 18710 1
18702 18704 1
18702 18705 1
18702 18709 1
18703 18708 1
18703 18709 1
18704 18706 1
18704 18707 1
18705 18710 1
18706 18708 1
18706 18709 1
18708 18710 1
18711 18714 1
18711 18715 1
18711 18719 1
18711 18722 1
18712 18716 1
18712 18717 1
18712 18720 1
18713 18718 1
18713 18719 1
18713 18722 1
18714 18716 1
18714 18717 1
18714 18721 1
18715 18720 1
18715 18721 1
18716 18718 1
18716 18719 1
18717 18722 1
18718 18720 1
18718 18721 1
18720 18722 1
18723 18726 1
18723 18727 1
18723 18731 1
18723 18734 1
18724 18728 1
18724 18729 1
18724 18732 1
18725 18730 1
18725 18731 1
18725 18734 1
18726 18728 1
18726 18729 1
18726 18733 1
18727 18732 1
18727 18733 1
18728 18730 1
18728 18731 1
18729 18734 1
18730 18732 1
18730 18733 1
18732 18734 1
18735 18738 1
18735 18739 1
18735 18743 1
18735 18746 1
18736 18740 1
18736 18741 1
18736 18744 1
18737 18742 1
18737 18743 1
18737 18746 1
18738 18740 1
18738 18741 1
18738 18745 1
18739 18744 1
18739 18745 1
18740 18742 1
18740 18743 1
18741 18746 1
18742 18744 1
18742 18745 1
18744 18746 1
18747 18750 1
18747 18751 1
18747 18755 1
18747 18758 1
18748 18752 1
18748 18753 1
18748 18756 1
18749 18754 1
18749 18755 1
18749 18758 1
18750 18752 1
18750 18753 1
18750 18757 1
18751 18756 1
18751 18757 1
18752 18754 1
18752 18755 1
18753 18758 1
18754 18756 1
18754 18757 1
18756 18758 1
18759 18762 1
18759 18763 1
18759 18767 1
18759 18770 1
18760 18764 1
18760 18765 1
18760 18768 1
18761 18766 1
18761 18767 1
18761 18770 1
18762 18764 1
18762 18765 1
18762 18769 1
18763 18768 1
18763 18769 1
18764 18766 1
18764 18767 1
18765 18770 1
18766 18768 1
18766 18769 1
18768 18770 1
18771 18774 1
18771 18775 1
18771 18779 1
18771 18782 1
18772 18776 1
18772 18777 1
18772 18780 1
18773 18778 1
18773 18779 1
18773 18782 1
18774 18776 1
18774 18777 1
18774 18781 1
18775 18780 1
18775 18781 1
18776 18778 1
18776 18779 1
18777 18782 1
18778 18780 1
18778 18781 1
18780 18782 1
18783 18786 1
18783 18787 1
18783 18791 1
18783 18794 1
18784 18788 1
18784 18789 1
18784 18792 1
18785 18790 1
18785 18791 1
18785 18794 1
18786 18788 1
18786 18789 1
18786 18793 1
18787 18792 1
18787 18793 1
18788 18790 1
18788 18791 1
18789 18794 1
18790 18792 1
18790 18793 1
18792 18794 1
18795 18798 1
18795 18799 1
18795 18803 1
18795 18806 1
18796 18800 1
18796 18801 1
18796 18804 1
18797 18802 1
18797 18803 1
18797 18806 1
18798 18800 1
18798 18801 1
18798 18805 1
18799 18804 1
18799 18805 1
18800 18802 1
18800 18803 1
18801 18806 1
18802 18804 1
18802 18805 1
18804 18806 1
18807 18810 1
18807 18811 1
18807 18815 1
18807 18818 1
18808 18812 1
18808 18813 1
18808 18816 1
18809 18814 1
18809 18815 1
18809 18818 1
18810 18812 1
18810 18813 1
18810 18817 1
18811 18816 1
18811 18817 1
18812 18814 1
18812 18815 1
18813 18818 1
18814 18816 1
18814 18817 1
18816 18818 1
18819 18822 1
18819 18823 1
18819 18827 1
18819 18830 1
18820 18824 1
18820 18825 1
18820 18828 1
18821 18826 1
18821 18827 1
18821 18830 1
18822 18824 1
18822 18825 1
18822 18829 1
18823 18828 1
18823 18829 1
18824 18826 1
18824 18827 1
18825 18830 1
18826 18828 1
18826 18829 1
18828 18830 1
18831 18834 1
18831 18835 1
18831 18839 1
18831 18842 1
18832 18836 1
18832 18837 1
18832 18840 1
18833 18838 1
18833 18839 1
18833 18842 1
18834 18836 1
18834 18837 1
18834 18841 1
18835 18840 1
18835 18841 1
18836 18838 1
18836 18839 1
18837 18842 1
18838 18840 1
18838 18841 1
18840 18842 1
18843 18846 1
18843 18847 1
18843 18851 1
18843 18854 1
18844 18848 1
18844 18849 1
18844 18852 1
18845 18850 1
18845 18851 1
18845 18854 1
18846 18848 1
18846 18849 1
18846 18853 1
18847 18852 1
18847 18853 1
18848 18850 1
18848 18851 1
18849 18854 1
18850 18852 1
18850 18853 1
18852 18854 1
18855 18858 1
18855 18859 1
18855 18863 1
18855 18866 1
18856 18860 1
18856 18861 1
18856 18864 1
18857 18862 1
18857 18863 1
18857 18866 1
18858 18860 1
18858 18861 1
18858 18865 1
18859 18864 1
18859 18865 1
18860 18862 1
18860 18863 1
18861 18866 1
18862 18864 1
18862 18865 1
18864 18866 1
18867 18870 1
18867 18871 1
18867 18875 1
18867 18878 1
18868 18872 1
18868 18873 1
18868 18876 1
18869 18874 1
18869 18875 1
18869 18878 1
18870 18872 1
18870 18873 1
18870 18877 1
18871 18876 1
18871 18877 1
18872 18874 1
18872 18875 1
18873 18878 1
18874 18876 1
18874 18877 1
18876 18878 1
18879 18882 1
18879 18883 1
18879 18887 1
18879 18890 1
18880 18884 1
18880 18885 1
18880 18888 1
18881 18886 1
18881 18887 1
18881 18890 1
18882 18884 1
18882 18885 1
18882 18889 1
18883 18888 1
18883 18889 1
18884 18886 1
18884 18887 1
18885 18890 1
18886 18888 1
18886 18889 1
18888 18890 1
18891 18894 1
18891 18895 1
18891 18899 1
18891 18902 1
18892 18896 1
18892 18897 1
18892 18900 1
18893 18898 1
18893 18899 1
18893 18902 1
18894 18896 1
18894 18897 1
18894 18901 1
18895 18900 1
18895 18901 1
18896 18898 1
18896 18899 1
18897 18902 1
18898 18900 1
18898 18901 1
18900 18902 1
18903 18906 1
18903 18907 1
18903 18911 1
18903 18914 1
18904 18908 1
18904 18909 1
18904 18912 1
18905 18910 1
18905 18911 1
18905 18914 1
18906 18908 1
18906 18909 1
18906 18913 1
18907 18912 1
18907 18913 1
18908 18910 1
18908 18911 1
18909 18914 1
18910 18912 1
18910 18913 1
18912 18914 1
18915 18918 1
18915 18919 1
18915 18923 1
18915 18926 1
18916 18920 1
18916 18921 1
18916 18924 1
18917 18922 1
18917 18923 1
18917 18926 1
18918 18920 1
18918 18921 1
18918 18925 1
18919 18924 1
18919 18925 1
18920 18922 1
18920 18923 1
18921 18926 1
18922 18924 1
18922 18925 1
18924 18926 1
18927 18930 1
18927 18931 1
18927 18935 1
18927 18938 1
18928 18932 1
18928 18933 1
18928 18936 1
18929 18934 1
18929 18935 1
18929 18938 1
18930 18932 1
18930 18933 1
18930 18937 1
18931 18936 1
18931 18937 1
18932 18934 1
18932 18935 1
18933 18938 1
18934 18936 1
18934 18937 1
18936 18938 1
18939 18942 1
18939 18943 1
18939 18947 1
18939 18950 1
18940 18944 1
18940 18945 1
18940 18948 1
18941 18946 1
18941 18947 1
18941 18950 1
18942 18944 1
18942 18945 1
18942 18949 1
18943 18948 1
18943 18949 1
18944 18946 1
18944 18947 1
18945 18950 1
18946 18948 1
18946 18949 1
18948 18950 1
18951 18954 1
18951 18955 1
18951 18959 1
18951 18962 1
18952 18956 1
18952 18957 1
18952 18960 1
18953 18958 1
18953 18959 1
18953 18962 1
18954 18956 1
18954 18957 1
18954 18961 1
18955 18960 1
18955 18961 1
18956 18958 1
18956 18959 1
18957 18962 1
18958 18960 1
18958 18961 1
18960 18962 1
18963 18966 1
18963 18967 1
18963 18971 1
18963 18974 1
18964 18968 1
18964 18969 1
18964 18972 1
18965 18970 1
18965 18971 1
18965 18974 1
18966 18968 1
18966 18969 1
18966 18973 1
18967 18972 1
18967 18973 1
18968 18970 1
18968 18971 1
18969 18974 1
18970 18972 1
18970 18973 1
18972 18974 1
18975 18978 1
18975 18979 1
18975 18983 1
18975 18986 1
18976 18980 1
18976 18981 1
18976 18984 1
18977 18982 1
18977 18983 1
18977 18986 1
18978 18980 1
18978 18981 1
18978 18985 1
18979 18984 1
18979 18985 1
18980 18982 1
18980 18983 1
18981 18986 1
18982 18984 1
18982 18985 1
18984 18986 1
18987 18990 1
18987 18991 1
18987 18995 1
18987 18998 1
18988 18992 1
18988 18993 1
18988 18996 1
18989 18994 1
18989 18995 1
18989 18998 1
18990 18992 1
18990 18993 1
18990 18997 1
18991 18996 1
18991 18997 1
18992 18994 1
18992 18995 1
18993 18998 1
18994 18996 1
18994 18997 1
18996 18998 1
18999 19002 1
18999 19003 1
18999 19007 1
18999 19010 1
19000 19004 1
19000 19005 1
19000 19008 1
19001 19006 1
19001 19007 1
19001 19010 1
19002 19004 1
19002 19005 1
19002 19009 1
19003 19008 1
19003 19009 1
19004 19006 1
19004 19007 1
19005 19010 1
19006 19008 1
19006 19009 1
19008 19010 1
19011 19014 1
19011 19015 1
19011 19019 1
19011 19022 1
19012 19016 1
19012 19017 1
19012 19020 1
19013 19018 1
19013 19019 1
19013 19022 1
19014 19016 1
19014 19017 1
19014 19021 1
19015 19020 1
19015 19021 1
19016 19018 1
19016 19019 1
19017 19022 1
19018 19020 1
19018 19021 1
19020 19022 1
19023 19026 1
19023 19027 1
19023 19031 1
19023 19034 1
19024 19028 1
19024 19029 1
19024 19032 1
19025 19030 1
19025 19031 1
19025 19034 1
19026 19028 1
19026 19029 1
19026 19033 1
19027 19032 1
19027 19033 1
19028 19030 1
19028 19031 1
19029 19034 1
19030 19032 1
19030 19033 1
19032 19034 1
19035 19038 1
19035 19039 1
19035 19043 1
19035 19046 1
19036 19040 1
19036 19041 1
19036 19044 1
19037 19042 1
19037 19043 1
19037 19046 1
19038 19040 1
19038 19041 1
19038 19045 1
19039 19044 1
19039 19045 1
19040 19042 1
19040 19043 1
19041 19046 1
19042 19044 1
19042 19045 1
19044 19046 1
19047 19050 1
19047 19051 1
19047 19055 1
19047 19058 1
19048 19052 1
19048 19053 1
19048 19056 1
19049 19054 1
19049 19055 1
19049 19058 1
19050 19052 1
19050 19053 1
19050 19057 1
19051 19056 1
19051 19057 1
19052 19054 1
19052 19055 1
19053 19058 1
19054 19056 1
19054 19057 1
19056 19058 1
19059 19062 1
19059 19063 1
19059 19067 1
19059 19070 1
19060 19064 1
19060 19065 1
19060 19068 1
19061 19066 1
19061 19067 1
19061 19070 1
19062 19064 1
19062 19065 1
19062 19069 1
19063 19068 1
19063 19069 1
19064 19066 1
19064 19067 1
19065 19070 1
19066 19068 1
19066 19069 1
19068 19070 1
19071 19074 1
19071 19075 1
19071 19079 1
19071 19082 1
19072 19076 1
19072 19077 1
19072 19080 1
19073 19078 1
19073 19079 1
19073 19082 1
19074 19076 1
19074 19077 1
19074 19081 1
19075 19080 1
19075 19081 1
19076 19078 1
19076 19079 1
19077 19082 1
19078 19080 1
19078 19081 1
19080 19082 1
19083 19086 1
19083 19087 1
19083 19091 1
19083 19094 1
19084 19088 1
19084 19089 1
19084 19092 1
19085 19090 1
19085 19091 1
19085 19094 1
19086 19088 1
19086 19089 1
19086 19093 1
19087 19092 1
19087 19093 1
19088 19090 1
19088 19091 1
19089 19094 1
19090 19092 1
19090 19093 1
19092 19094 1
19095 19098 1
19095 19099 1
19095 19103 1
19095 19106 1
19096 19100 1
19096 19101 1
19096 19104 1
19097 19102 1
19097 19103 1
19097 19106 1
19098 19100 1
19098 19101 1
19098 19105 1
19099 19104 1
19099 19105 1
19100 19102 1
19100 19103 1
19101 19106 1
19102 19104 1
19102 19105 1
19104 19106 1
19107 19110 1
19107 19111 1
19107 19115 1
19107 19118 1
19108 19112 1
19108 19113 1
19108 19116 1
19109 19114 1
19109 19115 1
19109 19118 1
19110 19112 1
19110 19113 1
19110 19117 1
19111 19116 1
19111 19117 1
19112 19114 1
19112 19115 1
19113 19118 1
19114 19116 1
19114 19117 1
19116 19118 1
19119 19122 1
19119 19123 1
19119 19127 1
19119 19130 1
19120 19124 1
19120 19125 1
19120 19128 1
19121 19126 1
19121 19127 1
19121 19130 1
19122 19124 1
19122 19125 1
19122 19129 1
19123 19128 1
19123 19129 1
19124 19126 1
19124 19127 1
19125 19130 1
19126 19128 1
19126 19129 1
19128 19130 1
19131 19134 1
19131 19135 1
19131 19139 1
19131 19142 1
19132 19136 1
19132 19137 1
19132 19140 1
19133 19138 1
19133 19139 1
19133 19142 1
19134 19136 1
19134 19137 1
19134 19141 1
19135 19140 1
19135 19141 1
19136 19138 1
19136 19139 1
19137 19142 1
19138 19140 1
19138 19141 1
19140 19142 1
19143 19146 1
19143 19147 1
19143 19151 1
19143 19154 1
19144 19148 1
19144 19149 1
19144 19152 1
19145 19150 1
19145 19151 1
19145 19154 1
19146 19148 1
19146 19149 1
19146 19153 1
19147 19152 1
19147 19153 1
19148 19150 1
19148 19151 1
19149 19154 1
19150 19152 1
19150 19153 1
19152 19154 1
19155 19158 1
19155 19159 1
19155 19163 1
19155 19166 1
19156 19160 1
19156 19161 1
19156 19164 1
19157 19162 1
19157 19163 1
19157 19166 1
19158 19160 1
19158 19161 1
19158 19165 1
19159 19164 1
19159 19165 1
19160 19162 1
19160 19163 1
19161 19166 1
19162 19164 1
19162 19165 1
19164 19166 1
19167 19170 1
19167 19171 1
19167 19175 1
19167 19178 1
19168 19172 1
19168 19173 1
19168 19176 1
19169 19174 1
19169 19175 1
19169 19178 1
19170 19172 1
19170 19173 1
19170 19177 1
19171 19176 1
19171 19177 1
19172 19174 1
19172 19175 1
19173 19178 1
19174 19176 1
19174 19177 1
19176 19178 1
19179 19182 1
19179 19183 1
19179 19187 1
19179 19190 1
19180 19184 1
19180 19185 1
19180 19188 1
19181 19186 1
19181 19187 1
19181 19190 1
19182 19184 1
19182 19185 1
19182 19189 1
19183 19188 1
19183 19189 1
19184 19186 1
19184 19187 1
19185 19190 1
19186 19188 1
19186 19189 1
19188 19190 1
19191 19194 1
19191 19195 1
19191 19199 1
19191 19202 1
19192 19196 1
19192 19197 1
19192 19200 1
19193 19198 1
19193 19199 1
19193 19202 1
19194 19196 1
19194 19197 1
19194 19201 1
19195 19200 1
19195 19201 1
19196 19198 1
19196 19199 1
19197 19202 1
19198 19200 1
19198 19201 1
19200 19202 1
19203 19206 1
19203 19207 1
19203 19211 1
19203 19214 1
19204 19208 1
19204 19209 1
19204 19212 1
19205 19210 1
19205 19211 1
19205 19214 1
19206 19208 1
19206 19209 1
19206 19213 1
19207 19212 1
19207 19213 1
19208 19210 1
19208 19211 1
19209 19214 1
19210 19212 1
19210 19213 1
19212 19214 1
19215 19218 1
19215 19219 1
19215 19223 1
19215 19226 1
19216 19220 1
19216 19221 1
19216 19224 1
19217 19222 1
19217 19223 1
19217 19226 1
19218 19220 1
19218 19221 1
19218 19225 1
19219 19224 1
19219 19225 1
19220 19222 1
19220 19223 1
19221 19226 1
19222 19224 1
19222 19225 1
19224 19226 1
19227 19230 1
19227 19231 1
19227 19235 1
19227 19238 1
19228 19232 1
19228 19233 1
19228 19236 1
19229 19234 1
19229 19235 1
19229 19238 1
19230 19232 1
19230 19233 1
19230 19237 1
19231 19236 1
19231 19237 1
19232 19234 1
19232 19235 1
19233 19238 1
19234 19236 1
19234 19237 1
19236 19238 1
19239 19242 1
19239 19243 1
19239 19247 1
19239 19250 1
19240 19244 1
19240 19245 1
19240 19248 1
19241 19246 1
19241 19247 1
19241 19250 1
19242 19244 1
19242 19245 1
19242 19249 1
19243 19248 1
19243 19249 1
19244 19246 1
19244 19247 1
19245 19250 1
19246 19248 1
19246 19249 1
19248 19250 1
19251 19254 1
19251 19255 1
19251 19259 1
19251 19262 1
19252 19256 1
19252 19257 1
19252 19260 1
19253 19258 1
19253 19259 1
19253 19262 1
19254 19256 1
19254 19257 1
19254 19261 1
19255 19260 1
19255 19261 1
19256 19258 1
19256 19259 1
19257 19262 1
19258 19260 1
19258 19261 1
19260 19262 1
19263 19266 1
19263 19267 1
19263 19271 1
19263 19274 1
19264 19268 1
19264 19269 1
19264 19272 1
19265 19270 1
19265 19271 1
19265 19274 1
19266 19268 1
19266 19269 1
19266 19273 1
19267 19272 1
19267 19273 1
19268 19270 1
19268 19271 1
19269 19274 1
19270 19272 1
19270 19273 1
19272 19274 1
19275 19278 1
19275 19279 1
19275 19283 1
19275 19286 1
19276 19280 1
19276 19281 1
19276 19284 1
19277 19282 1
19277 19283 1
19277 19286 1
19278 19280 1
19278 19281 1
19278 19285 1
19279 19284 1
19279 19285 1
19280 19282 1
19280 19283 1
19281 19286 1
19282 19284 1
19282 19285 1
19284 19286 1
19287 19290 1
19287 19291 1
19287 19295 1
19287 19298 1
19288 19292 1
19288 19293 1
19288 19296 1
19289 19294 1
19289 19295 1
19289 19298 1
19290 19292 1
19290 19293 1
19290 19297 1
19291 19296 1
19291 19297 1
19292 19294 1
19292 19295 1
19293 19298 1
19294 19296 1
19294 19297 1
19296 19298 1
19299 19302 1
19299 19303 1
19299 19307 1
19299 19310 1
19300 19304 1
19300 19305 1
19300 19308 1
19301 19306 1
19301 19307 1
19301 19310 1
19302 19304 1
19302 19305 1
19302 19309 1
19303 19308 1
19303 19309 1
19304 19306 1
19304 19307 1
19305 19310 1
19306 19308 1
19306 19309 1
19308 19310 1
19311 19314 1
19311 19315 1
19311 19319 1
19311 19322 1
19312 19316 1
19312 19317 1
19312 19320 1
19313 19318 1
19313 19319 1
19313 19322 1
19314 19316 1
19314 19317 1
19314 19321 1
19315 19320 1
19315 19321 1
19316 19318 1
19316 19319 1
19317 19322 1
19318 19320 1
19318 19321 1
19320 19322 1
19323 19326 1
19323 19327 1
19323 19331 1
19323 19334 1
19324 19328 1
19324 19329 1
19324 19332 1
19325 19330 1
19325 19331 1
19325 19334 1
19326 19328 1
19326 19329 1
19326 19333 1
19327 19332 1
19327 19333 1
19328 19330 1
19328 19331 1
19329 19334 1
19330 19332 1
19330 19333 1
19332 19334 1
19335 19338 1
19335 19339 1
19335 19343 1
19335 19346 1
19336 19340 1
19336 19341 1
19336 19344 1
19337 19342 1
19337 19343 1
19337 19346 1
19338 19340 1
19338 19341 1
19338 19345 1
19339 19344 1
19339 19345 1
19340 19342 1
19340 19343 1
19341 19346 1
19342 19344 1
19342 19345 1
19344 19346 1
19347 19350 1
19347 19351 1
19347 19355 1
19347 19358 1
19348 19352 1
19348 19353 1
19348 19356 1
19349 19354 1
19349 19355 1
19349 19358 1
19350 19352 1
19350 19353 1
19350 19357 1
19351 19356 1
19351 19357 1
19352 19354 1
19352 19355 1
19353 19358 1
19354 19356 1
19354 19357 1
19356 19358 1
19359 19362 1
19359 19363 1
19359 19367 1
19359 19370 1
19360 19364 1
19360 19365 1
19360 19368 1
19361 19366 1
19361 19367 1
19361 19370 1
19362 19364 1
19362 19365 1
19362 19369 1
19363 19368 1
19363 19369 1
19364 19366 1
19364 19367 1
19365 19370 1
19366 19368 1
19366 19369 1
19368 19370 1
19371 19374 1
19371 19375 1
19371 19379 1
19371 19382 1
19372 19376 1
19372 19377 1
19372 19380 1
19373 19378 1
19373 19379 1
19373 19382 1
19374 19376 1
19374 19377 1
19374 19381 1
19375 19380 1
19375 19381 1
19376 19378 1
19376 19379 1
19377 19382 1
19378 19380 1
19378 19381 1
19380 19382 1
19383 19386 1
19383 19387 1
19383 19391 1
19383 19394 1
19384 19388 1
19384 19389 1
19384 19392 1
19385 19390 1
19385 19391 1
19385 19394 1
19386 19388 1
19386 19389 1
19386 19393 1
19387 19392 1
19387 19393 1
19388 19390 1
19388 19391 1
19389 19394 1
19390 19392 1
19390 19393 1
19392 19394 1
19395 19398 1
19395 19399 1
19395 19403 1
19395 19406 1
19396 19400 1
19396 19401 1
19396 19404 1
19397 19402 1
19397 19403 1
19397 19406 1
19398 19400 1
19398 19401 1
19398 19405 1
19399 19404 1
19399 19405 1
19400 19402 1
19400 19403 1
19401 19406 1
19402 19404 1
19402 19405 1
19404 19406 1
19407 19410 1
19407 19411 1
19407 19415 1
19407 19418 1
19408 19412 1
19408 19413 1
19408 19416 1
19409 19414 1
19409 19415 1
19409 19418 1
19410 19412 1
19410 19413 1
19410 19417 1
19411 19416 1
19411 19417 1
19412 19414 1
19412 19415 1
19413 19418 1
19414 19416 1
19414 19417 1
19416 19418 1
19419 19422 1
19419 19423 1
19419 19427 1
19419 19430 1
19420 19424 1
19420 19425 1
19420 19428 1
19421 19426 1
19421 19427 1
19421 19430 1
19422 19424 1
19422 19425 1
19422 19429 1
19423 19428 1
19423 19429 1
19424 19426 1
19424 19427 1
19425 19430 1
19426 19428 1
19426 19429 1
19428 19430 1
19431 19434 1
19431 19435 1
19431 19439 1
19431 19442 1
19432 19436 1
19432 19437 1
19432 19440 1
19433 19438 1
19433 19439 1
19433 19442 1
19434 19436 1
19434 19437 1
19434 19441 1
19435 19440 1
19435 19441 1
19436 19438 1
19436 19439 1
19437 19442 1
19438 19440 1
19438 19441 1
19440 19442 1
19443 19446 1
19443 19447 1
19443 19451 1
19443 19454 1
19444 19448 1
19444 19449 1
19444 19452 1
19445 19450 1
19445 19451 1
19445 19454 1
19446 19448 1
19446 19449 1
19446 19453 1
19447 19452 1
19447 19453 1
19448 19450 1
19448 19451 1
19449 19454 1
19450 19452 1
19450 19453 1
19452 19454 1
19455 19458 1
19455 19459 1
19455 19463 1
19455 19466 1
19456 19460 1
19456 19461 1
19456 19464 1
19457 19462 1
19457 19463 1
19457 19466 1
19458 19460 1
19458 19461 1
19458 19465 1
19459 19464 1
19459 19465 1
19460 19462 1
19460 19463 1
19461 19466 1
19462 19464 1
19462 19465 1
19464 19466 1
19467 19470 1
19467 19471 1
19467 19475 1
19467 19478 1
19468 19472 1
19468 19473 1
19468 19476 1
19469 19474 1
19469 19475 1
19469 19478 1
19470 19472 1
19470 19473 1
19470 19477 1
19471 19476 1
19471 19477 1
19472 19474 1
19472 19475 1
19473 19478 1
19474 19476 1
19474 19477 1
19476 19478 1
19479 19482 1
19479 19483 1
19479 19487 1
19479 19490 1
19480 19484 1
19480 19485 1
19480 19488 1
19481 19486 1
19481 19487 1
19481 19490 1
19482 19484 1
19482 19485 1
19482 19489 1
19483 19488 1
19483 19489 1
19484 19486 1
19484 19487 1
19485 19490 1
19486 19488 1
19486 19489 1
19488 19490 1
19491 19494 1
19491 19495 1
19491 19499 1
19491 19502 1
19492 19496 1
19492 19497 1
19492 19500 1
19493 19498 1
19493 19499 1
19493 19502 1
19494 19496 1
19494 19497 1
19494 19501 1
19495 19500 1
19495 19501 1
19496 19498 1
19496 19499 1
19497 19502 1
19498 19500 1
19498 19501 1
19500 19502 1
19503 19506 1
19503 19507 1
19503 19511 1
19503 19514 1
19504 19508 1
19504 19509 1
19504 19512 1
19505 19510 1
19505 19511 1
19505 19514 1
19506 19508 1
19506 19509 1
19506 19513 1
19507 19512 1
19507 19513 1
19508 19510 1
19508 19511 1
19509 19514 1
19510 19512 1
19510 19513 1
19512 19514 1
19515 19518 1
19515 19519 1
19515 19523 1
19515 19526 1
19516 19520 1
19516 19521 1
19516 19524 1
19517 19522 1
19517 19523 1
19517 19526 1
19518 19520 1
19518 19521 1
19518 19525 1
19519 19524 1
19519 19525 1
19520 19522 1
19520 19523 1
19521 19526 1
19522 19524 1
19522 19525 1
19524 19526 1
19527 19530 1
19527 19531 1
19527 19535 1
19527 19538 1
19528 19532 1
19528 19533 1
19528 19536 1
19529 19534 1
19529 19535 1
19529 19538 1
19530 19532 1
19530 19533 1
19530 19537 1
19531 19536 1
19531 19537 1
19532 19534 1
19532 19535 1
19533 19538 1
19534 19536 1
19534 19537 1
19536 19538 1
19539 19542 1
19539 19543 1
19539 19547 1
19539 19550 1
19540 19544 1
19540 19545 1
19540 19548 1
19541 19546 1
19541 19547 1
19541 19550 1
19542 19544 1
19542 19545 1
19542 19549 1
19543 19548 1
19543 19549 1
19544 19546 1
19544 19547 1
19545 19550 1
19546 19548 1
19546 19549 1
19548 19550 1
19551 19554 1
19551 19555 1
19551 19559 1
19551 19562 1
19552 19556 1
19552 19557 1
19552 19560 1
19553 19558 1
19553 19559 1
19553 19562 1
19554 19556 1
19554 19557 1
19554 19561 1
19555 19560 1
19555 19561 1
19556 19558 1
19556 19559 1
19557 19562 1
19558 19560 1
19558 19561 1
19560 19562 1
19563 19566 1
19563 19567 1
19563 19571 1
19563 19574 1
19564 19568 1
19564 19569 1
19564 19572 1
19565 19570 1
19565 19571 1
19565 19574 1
19566 19568 1
19566 19569 1
19566 19573 1
19567 19572 1
19567 19573 1
19568 19570 1
19568 19571 1
19569 19574 1
19570 19572 1
19570 19573 1
19572 19574 1
19575 19578 1
19575 19579 1
19575 19583 1
19575 19586 1
19576 19580 1
19576 19581 1
19576 19584 1
19577 19582 1
19577 19583 1
19577 19586 1
19578 19580 1
19578 19581 1
19578 19585 1
19579 19584 1
19579 19585 1
19580 19582 1
19580 19583 1
19581 19586 1
19582 19584 1
19582 19585 1
19584 19586 1
19587 19590 1
19587 19591 1
19587 19595 1
19587 19598 1
19588 19592 1
19588 19593 1
19588 19596 1
19589 19594 1
19589 19595 1
19589 19598 1
19590 19592 1
19590 19593 1
19590 19597 1
19591 19596 1
19591 19597 1
19592 19594 1
19592 19595 1
19593 19598 1
19594 19596 1
19594 19597 1
19596 19598 1
19599 19602 1
19599 19603 1
19599 19607 1
19599 19610 1
19600 19604 1
19600 19605 1
19600 19608 1
19601 19606 1
19601 19607 1
19601 19610 1
19602 19604 1
19602 19605 1
19602 19609 1
19603 19608 1
19603 19609 1
19604 19606 1
19604 19607 1
19605 19610 1
19606 19608 1
19606 19609 1
19608 19610 1
19611 19614 1
19611 19615 1
19611 19619 1
19611 19622 1
19612 19616 1
19612 19617 1
19612 19620 1
19613 19618 1
19613 19619 1
19613 19622 1
19614 19616 1
19614 19617 1
19614 19621 1
19615 19620 1
19615 19621 1
19616 19618 1
19616 19619 1
19617 19622 1
19618 19620 1
19618 19621 1
19620 19622 1
19623 19626 1
19623 19627 1
19623 19631 1
19623 19634 1
19624 19628 1
19624 19629 1
19624 19632 1
19625 19630 1
19625 19631 1
19625 19634 1
19626 19628 1
19626 19629 1
19626 19633 1
19627 19632 1
19627 19633 1
19628 19630 1
19628 19631 1
19629 19634 1
19630 19632 1
19630 19633 1
19632 19634 1
19635 19638 1
19635 19639 1
19635 19643 1
19635 19646 1
19636 19640 1
19636 19641 1
19636 19644 1
19637 19642 1
19637 19643 1
19637 19646 1
19638 19640 1
19638 19641 1
19638 19645 1
19639 19644 1
19639 19645 1
19640 19642 1
19640 19643 1
19641 19646 1
19642 19644 1
19642 19645 1
19644 19646 1
19647 19650 1
19647 19651 1
19647 19655 1
19647 19658 1
19648 19652 1
19648 19653 1
19648 19656 1
19649 19654 1
19649 19655 1
19649 19658 1
19650 19652 1
19650 19653 1
19650 19657 1
19651 19656 1
19651 19657 1
19652 19654 1
19652 19655 1
19653 19658 1
19654 19656 1
19654 19657 1
19656 19658 1
19659 19662 1
19659 19663 1
19659 19667 1
19659 19670 1
19660 19664 1
19660 19665 1
19660 19668 1
19661 19666 1
19661 19667 1
19661 19670 1
19662 19664 1
19662 19665 1
19662 19669 1
19663 19668 1
19663 19669 1
19664 19666 1
19664 19667 1
19665 19670 1
19666 19668 1
19666 19669 1
19668 19670 1
19671 19674 1
19671 19675 1
19671 19679 1
19671 19682 1
19672 19676 1
19672 19677 1
19672 19680 1
19673 19678 1
19673 19679 1
19673 19682 1
19674 19676 1
19674 19677 1
19674 19681 1
19675 19680 1
19675 19681 1
19676 19678 1
19676 19679 1
19677 19682 1
19678 19680 1
19678 19681 1
19680 19682 1
19683 19686 1
19683 19687 1
19683 19691 1
19683 19694 1
19684 19688 1
19684 19689 1
19684 19692 1
19685 19690 1
19685 19691 1
19685 19694 1
19686 19688 1
19686 19689 1
19686 19693 1
19687 19692 1
19687 19693 1
19688 19690 1
19688 19691 1
19689 19694 1
19690 19692 1
19690 19693 1
19692 19694 1
19695 19698 1
19695 19699 1
19695 19703 1
19695 19706 1
19696 19700 1
19696 19701 1
19696 19704 1
19697 19702 1
19697 19703 1
19697 19706 1
19698 19700 1
19698 19701 1
19698 19705 1
19699 19704 1
19699 19705 1
19700 19702 1
19700 19703 1
19701 19706 1
19702 19704 1
19702 19705 1
19704 19706 1
19707 19710 1
19707 19711 1
19707 19715 1
19707 19718 1
19708 19712 1
19708 19713 1
19708 19716 1
19709 19714 1
19709 19715 1
19709 19718 1
19710 19712 1
19710 19713 1
19710 19717 1
19711 19716 1
19711 19717 1
19712 19714 1
19712 19715 1
19713 19718 1
19714 19716 1
19714 19717 1
19716 19718 1
19719 19722 1
19719 19723 1
19719 19727 1
19719 19730 1
19720 19724 1
19720 19725 1
19720 19728 1
19721 19726 1
19721 19727 1
19721 19730 1
19722 19724 1
19722 19725 1
19722 19729 1
19723 19728 1
19723 19729 1
19724 19726 1
19724 19727 1
19725 19730 1
19726 19728 1
19726 19729 1
19728 19730 1
19731 19734 1
19731 19735 1
19731 19739 1
19731 19742 1
19732 19736 1
19732 19737 1
19732 19740 1
19733 19738 1
19733 19739 1
19733 19742 1
19734 19736 1
19734 19737 1
19734 19741 1
19735 19740 1
19735 19741 1
19736 19738 1
19736 19739 1
19737 19742 1
19738 19740 1
19738 19741 1
19740 19742 1
19743 19746 1
19743 19747 1
19743 19751 1
19743 19754 1
19744 19748 1
19744 19749 1
19744 19752 1
19745 19750 1
19745 19751 1
19745 19754 1
19746 19748 1
19746 19749 1
19746 19753 1
19747 19752 1
19747 19753 1
19748 19750 1
19748 19751 1
19749 19754 1
19750 19752 1
19750 19753 1
19752 19754 1
19755 19758 1
19755 19759 1
19755 19763 1
19755 19766 1
19756 19760 1
19756 19761 1
19756 19764 1
19757 19762 1
19757 19763 1
19757 19766 1
19758 19760 1
19758 19761 1
19758 19765 1
19759 19764 1
19759 19765 1
19760 19762 1
19760 19763 1
19761 19766 1
19762 19764 1
19762 19765 1
19764 19766 1
19767 19770 1
19767 19771 1
19767 19775 1
19767 19778 1
19768 19772 1
19768 19773 1
19768 19776 1
19769 19774 1
19769 19775 1
19769 19778 1
19770 19772 1
19770 19773 1
19770 19777 1
19771 19776 1
19771 19777 1
19772 19774 1
19772 19775 1
19773 19778 1
19774 19776 1
19774 19777 1
19776 19778 1
19779 19782 1
19779 19783 1
19779 19787 1
19779 19790 1
19780 19784 1
19780 19785 1
19780 19788 1
19781 19786 1
19781 19787 1
19781 19790 1
19782 19784 1
19782 19785 1
19782 19789 1
19783 19788 1
19783 19789 1
19784 19786 1
19784 19787 1
19785 19790 1
19786 19788 1
19786 19789 1
19788 19790 1
19791 19794 1
19791 19795 1
19791 19799 1
19791 19802 1
19792 19796 1
19792 19797 1
19792 19800 1
19793 19798 1
19793 19799 1
19793 19802 1
19794 19796 1
19794 19797 1
19794 19801 1
19795 19800 1
19795 19801 1
19796 19798 1
19796 19799 1
19797 19802 1
19798 19800 1
19798 19801 1
19800 19802 1
19803 19806 1
19803 19807 1
19803 19811 1
19803 19814 1
19804 19808 1
19804 19809 1
19804 19812 1
19805 19810 1
19805 19811 1
19805 19814 1
19806 19808 1
19806 19809 1
19806 19813 1
19807 19812 1
19807 19813 1
19808 19810 1
19808 19811 1
19809 19814 1
19810 19812 1
19810 19813 1
19812 19814 1
19815 19818 1
19815 19819 1
19815 19823 1
19815 19826 1
19816 19820 1
19816 19821 1
19816 19824 1
19817 19822 1
19817 19823 1
19817 19826 1
19818 19820 1
19818 19821 1
19818 19825 1
19819 19824 1
19819 19825 1
19820 19822 1
19820 19823 1
19821 19826 1
19822 19824 1
19822 19825 1
19824 19826 1
19827 19830 1
19827 19831 1
19827 19835 1
19827 19838 1
19828 19832 1
19828 19833 1
19828 19836 1
19829 19834 1
19829 19835 1
19829 19838 1
19830 19832 1
19830 19833 1
19830 19837 1
19831 19836 1
19831 19837 1
19832 19834 1
19832 19835 1
19833 19838 1
19834 19836 1
19834 19837 1
19836 19838 1
19839 19842 1
19839 19843 1
19839 19847 1
19839 19850 1
19840 19844 1
19840 19845 1
19840 19848 1
19841 19846 1
19841 19847 1
19841 19850 1
19842 19844 1
19842 19845 1
19842 19849 1
19843 19848 1
19843 19849 1
19844 19846 1
19844 19847 1
19845 19850 1
19846 19848 1
19846 19849 1
19848 19850 1
19851 19854 1
19851 19855 1
19851 19859 1
19851 19862 1
19852 19856 1
19852 19857 1
19852 19860 1
19853 19858 1
19853 19859 1
19853 19862 1
19854 19856 1
19854 19857 1
19854 19861 1
19855 19860 1
19855 19861 1
19856 19858 1
19856 19859 1
19857 19862 1
19858 19860 1
19858 19861 1
19860 19862 1
19863 19866 1
19863 19867 1
19863 19871 1
19863 19874 1
19864 19868 1
19864 19869 1
19864 19872 1
19865 19870 1
19865 19871 1
19865 19874 1
19866 19868 1
19866 19869 1
19866 19873 1
19867 19872 1
19867 19873 1
19868 19870 1
19868 19871 1
19869 19874 1
19870 19872 1
19870 19873 1
19872 19874 1
19875 19878 1
19875 19879 1
19875 19883 1
19875 19886 1
19876 19880 1
19876 19881 1
19876 19884 1
19877 19882 1
19877 19883 1
19877 19886 1
19878 19880 1
19878 19881 1
19878 19885 1
19879 19884 1
19879 19885 1
19880 19882 1
19880 19883 1
19881 19886 1
19882 19884 1
19882 19885 1
19884 19886 1
19887 19890 1
19887 19891 1
19887 19895 1
19887 19898 1
19888 19892 1
19888 19893 1
19888 19896 1
19889 19894 1
19889 19895 1
19889 19898 1
19890 19892 1
19890 19893 1
19890 19897 1
19891 19896 1
19891 19897 1
19892 19894 1
19892 19895 1
19893 19898 1
19894 19896 1
19894 19897 1
19896 19898 1
19899 19902 1
19899 19903 1
19899 19907 1
19899 19910 1
19900 19904 1
19900 19905 1
19900 19908 1
19901 19906 1
19901 19907 1
19901 19910 1
19902 19904 1
19902 19905 1
19902 19909 1
19903 19908 1
19903 19909 1
19904 19906 1
19904 19907 1
19905 19910 1
19906 19908 1
19906 19909 1
19908 19910 1
19911 19914 1
19911 19915 1
19911 19919 1
19911 19922 1
19912 19916 1
19912 19917 1
19912 19920 1
19913 19918 1
19913 19919 1
19913 19922 1
19914 19916 1
19914 19917 1
19914 19921 1
19915 19920 1
19915 19921 1
19916 19918 1
19916 19919 1
19917 19922 1
19918 19920 1
19918 19921 1
19920 19922 1
19923 19926 1
19923 19927 1
19923 19931 1
19923 19934 1
19924 19928 1
19924 19929 1
19924 19932 1
19925 19930 1
19925 19931 1
19925 19934 1
19926 19928 1
19926 19929 1
19926 19933 1
19927 19932 1
19927 19933 1
19928 19930 1
19928 19931 1
19929 19934 1
19930 19932 1
19930 19933 1
19932 19934 1
19935 19938 1
19935 19939 1
19935 19943 1
19935 19946 1
19936 19940 1
19936 19941 1
19936 19944 1
19937 19942 1
19937 19943 1
19937 19946 1
19938 19940 1
19938 19941 1
19938 19945 1
19939 19944 1
19939 19945 1
19940 19942 1
19940 19943 1
19941 19946 1
19942 19944 1
19942 19945 1
19944 19946 1
19947 19950 1
19947 19951 1
19947 19955 1
19947 19958 1
19948 19952 1
19948 19953 1
19948 19956 1
19949 19954 1
19949 19955 1
19949 19958 1
19950 19952 1
19950 19953 1
19950 19957 1
19951 19956 1
19951 19957 1
19952 19954 1
19952 19955 1
19953 19958 1
19954 19956 1
19954 19957 1
19956 19958 1
19959 19962 1
19959 19963 1
19959 19967 1
19959 19970 1
19960 19964 1
19960 19965 1
19960 19968 1
19961 19966 1
19961 19967 1
19961 19970 1
19962 19964 1
19962 19965 1
19962 19969 1
19963 19968 1
19963 19969 1
19964 19966 1
19964 19967 1
19965 19970 1
19966 19968 1
19966 19969 1
19968 19970 1
19971 19974 1
19971 19975 1
19971 19979 1
19971 19982 1
19972 19976 1
19972 19977 1
19972 19980 1
19973 19978 1
19973 19979 1
19973 19982 1
19974 19976 1
19974 19977 1
19974 19981 1
19975 19980 1
19975 19981 1
19976 19978 1
19976 19979 1
19977 19982 1
19978 19980 1
19978 19981 1
19980 19982 1
19983 19986 1
19983 19987 1
19983 19991 1
19983 19994 1
19984 19988 1
19984 19989 1
19984 19992 1
19985 19990 1
19985 19991 1
19985 19994 1
19986 19988 1
19986 19989 1
19986 19993 1
19987 19992 1
19987 19993 1
19988 19990 1
19988 19991 1
19989 19994 1
19990 19992 1
19990 19993 1
19992 19994 1
19995 19998 1
19995 19999 1
19995 20003 1
19995 20006 1
19996 20000 1
19996 20001 1
19996 20004 1
19997 20002 1
19997 20003 1
19997 20006 1
19998 20000 1
19998 20001 1
19998 20005 1
19999 20004 1
19999 20005 1
20000 20002 1
20000 20003 1
20001 20006 1
20002 20004 1
20002 20005 1
20004 20006 1
20007 20010 1
20007 20011 1
20007 20015 1
20007 20018 1
20008 20012 1
20008 20013 1
20008 20016 1
20009 20014 1
20009 20015 1
20009 20018 1
20010 20012 1
20010 20013 1
20010 20017 1
20011 20016 1
20011 20017 1
20012 20014 1
20012 20015 1
20013 20018 1
20014 20016 1
20014 20017 1
20016 20018 1
20019 20022 1
20019 20023 1
20019 20027 1
20019 20030 1
20020 20024 1
20020 20025 1
20020 20028 1
20021 20026 1
20021 20027 1
20021 20030 1
20022 20024 1
20022 20025 1
20022 20029 1
20023 20028 1
20023 20029 1
20024 20026 1
20024 20027 1
20025 20030 1
20026 20028 1
20026 20029 1
20028 20030 1
20031 20034 1
20031 20035 1
20031 20039 1
20031 20042 1
20032 20036 1
20032 20037 1
20032 20040 1
20033 20038 1
20033 20039 1
20033 20042 1
20034 20036 1
20034 20037 1
20034 20041 1
20035 20040 1
20035 20041 1
20036 20038 1
20036 20039 1
20037 20042 1
20038 20040 1
20038 20041 1
20040 20042 1
20043 20046 1
20043 20047 1
20043 20051 1
20043 20054 1
20044 20048 1
20044 20049 1
20044 20052 1
20045 20050 1
20045 20051 1
20045 20054 1
20046 20048 1
20046 20049 1
20046 20053 1
20047 20052 1
20047 20053 1
20048 20050 1
20048 20051 1
20049 20054 1
20050 20052 1
20050 20053 1
20052 20054 1
20055 20058 1
20055 20059 1
20055 20063 1
20055 20066 1
20056 20060 1
20056 20061 1
20056 20064 1
20057 20062 1
20057 20063 1
20057 20066 1
20058 20060 1
20058 20061 1
20058 20065 1
20059 20064 1
20059 20065 1
20060 20062 1
20060 20063 1
20061 20066 1
20062 20064 1
20062 20065 1
20064 20066 1
20067 20070 1
20067 20071 1
20067 20075 1
20067 20078 1
20068 20072 1
20068 20073 1
20068 20076 1
20069 20074 1
20069 20075 1
20069 20078 1
20070 20072 1
20070 20073 1
20070 20077 1
20071 20076 1
20071 20077 1
20072 20074 1
20072 20075 1
20073 20078 1
20074 20076 1
20074 20077 1
20076 20078 1
20079 20082 1
20079 20083 1
20079 20087 1
20079 20090 1
20080 20084 1
20080 20085 1
20080 20088 1
20081 20086 1
20081 20087 1
20081 20090 1
20082 20084 1
20082 20085 1
20082 20089 1
20083 20088 1
20083 20089 1
20084 20086 1
20084 20087 1
20085 20090 1
20086 20088 1
20086 20089 1
20088 20090 1
20091 20094 1
20091 20095 1
20091 20099 1
20091 20102 1
20092 20096 1
20092 20097 1
20092 20100 1
20093 20098 1
20093 20099 1
20093 20102 1
20094 20096 1
20094 20097 1
20094 20101 1
20095 20100 1
20095 20101 1
20096 20098 1
20096 20099 1
20097 20102 1
20098 20100 1
20098 20101 1
20100 20102 1
20103 20106 1
20103 20107 1
20103 20111 1
20103 20114 1
20104 20108 1
20104 20109 1
20104 20112 1
20105 20110 1
20105 20111 1
20105 20114 1
20106 20108 1
20106 20109 1
20106 20113 1
20107 20112 1
20107 20113 1
20108 20110 1
20108 20111 1
20109 20114 1
20110 20112 1
20110 20113 1
20112 20114 1
20115 20118 1
20115 20119 1
20115 20123 1
20115 20126 1
20116 20120 1
20116 20121 1
20116 20124 1
20117 20122 1
20117 20123 1
20117 20126 1
20118 20120 1
20118 20121 1
20118 20125 1
20119 20124 1
20119 20125 1
20120 20122 1
20120 20123 1
20121 20126 1
20122 20124 1
20122 20125 1
20124 20126 1
20127 20130 1
20127 20131 1
20127 20135 1
20127 20138 1
20128 20132 1
20128 20133 1
20128 20136 1
20129 20134 1
20129 20135 1
20129 20138 1
20130 20132 1
20130 20133 1
20130 20137 1
20131 20136 1
20131 20137 1
20132 20134 1
20132 20135 1
20133 20138 1
20134 20136 1
20134 20137 1
20136 20138 1
20139 20142 1
20139 20143 1
20139 20147 1
20139 20150 1
20140 20144 1
20140 20145 1
20140 20148 1
20141 20146 1
20141 20147 1
20141 20150 1
20142 20144 1
20142 20145 1
20142 20149 1
20143 20148 1
20143 20149 1
20144 20146 1
20144 20147 1
20145 20150 1
20146 20148 1
20146 20149 1
20148 20150 1
20151 20154 1
20151 20155 1
20151 20159 1
20151 20162 1
20152 20156 1
20152 20157 1
20152 20160 1
20153 20158 1
20153 20159 1
20153 20162 1
20154 20156 1
20154 20157 1
20154 20161 1
20155 20160 1
20155 20161 1
20156 20158 1
20156 20159 1
20157 20162 1
20158 20160 1
20158 20161 1
20160 20162 1
20163 20166 1
20163 20167 1
20163 20171 1
20163 20174 1
20164 20168 1
20164 20169 1
20164 20172 1
20165 20170 1
20165 20171 1
20165 20174 1
20166 20168 1
20166 20169 1
20166 20173 1
20167 20172 1
20167 20173 1
20168 20170 1
20168 20171 1
20169 20174 1
20170 20172 1
20170 20173 1
20172 20174 1
20175 20178 1
20175 20179 1
20175 20183 1
20175 20186 1
20176 20180 1
20176 20181 1
20176 20184 1
20177 20182 1
20177 20183 1
20177 20186 1
20178 20180 1
20178 20181 1
20178 20185 1
20179 20184 1
20179 20185 1
20180 20182 1
20180 20183 1
20181 20186 1
20182 20184 1
20182 20185 1
20184 20186 1
20187 20190 1
20187 20191 1
20187 20195 1
20187 20198 1
20188 20192 1
20188 20193 1
20188 20196 1
20189 20194 1
20189 20195 1
20189 20198 1
20190 20192 1
20190 20193 1
20190 20197 1
20191 20196 1
20191 20197 1
20192 20194 1
20192 20195 1
20193 20198 1
20194 20196 1
20194 20197 1
20196 20198 1
20199 20202 1
20199 20203 1
20199 20207 1
20199 20210 1
20200 20204 1
20200 20205 1
20200 20208 1
20201 20206 1
20201 20207 1
20201 20210 1
20202 20204 1
20202 20205 1
20202 20209 1
20203 20208 1
20203 20209 1
20204 20206 1
20204 20207 1
20205 20210 1
20206 20208 1
20206 20209 1
20208 20210 1
20211 20214 1
20211 20215 1
20211 20219 1
20211 20222 1
20212 20216 1
20212 20217 1
20212 20220 1
20213 20218 1
20213 20219 1
20213 20222 1
20214 20216 1
20214 20217 1
20214 20221 1
20215 20220 1
20215 20221 1
20216 20218 1
20216 20219 1
20217 20222 1
20218 20220 1
20218 20221 1
20220 20222 1
20223 20226 1
20223 20227 1
20223 20231 1
20223 20234 1
20224 20228 1
20224 20229 1
20224 20232 1
20225 20230 1
20225 20231 1
20225 20234 1
20226 20228 1
20226 20229 1
20226 20233 1
20227 20232 1
20227 20233 1
20228 20230 1
20228 20231 1
20229 20234 1
20230 20232 1
20230 20233 1
20232 20234 1
20235 20238 1
20235 20239 1
20235 20243 1
20235 20246 1
20236 20240 1
20236 20241 1
20236 20244 1
20237 20242 1
20237 20243 1
20237 20246 1
20238 20240 1
20238 20241 1
20238 20245 1
20239 20244 1
20239 20245 1
20240 20242 1
20240 20243 1
20241 20246 1
20242 20244 1
20242 20245 1
20244 20246 1
20247 20250 1
20247 20251 1
20247 20255 1
20247 20258 1
20248 20252 1
20248 20253 1
20248 20256 1
20249 20254 1
20249 20255 1
20249 20258 1
20250 20252 1
20250 20253 1
20250 20257 1
20251 20256 1
20251 20257 1
20252 20254 1
20252 20255 1
20253 20258 1
20254 20256 1
20254 20257 1
20256 20258 1
20259 20262 1
20259 20263 1
20259 20267 1
20259 20270 1
20260 20264 1
20260 20265 1
20260 20268 1
20261 20266 1
20261 20267 1
20261 20270 1
20262 20264 1
20262 20265 1
20262 20269 1
20263 20268 1
20263 20269 1
20264 20266 1
20264 20267 1
20265 20270 1
20266 20268 1
20266 20269 1
20268 20270 1
20271 20274 1
20271 20275 1
20271 20279 1
20271 20282 1
20272 20276 1
20272 20277 1
20272 20280 1
20273 20278 1
20273 20279 1
20273 20282 1
20274 20276 1
20274 20277 1
20274 20281 1
20275 20280 1
20275 20281 1
20276 20278 1
20276 20279 1
20277 20282 1
20278 20280 1
20278 20281 1
20280 20282 1
20283 20286 1
20283 20287 1
20283 20291 1
20283 20294 1
20284 20288 1
20284 20289 1
20284 20292 1
20285 20290 1
20285 20291 1
20285 20294 1
20286 20288 1
20286 20289 1
20286 20293 1
20287 20292 1
20287 20293 1
20288 20290 1
20288 20291 1
20289 20294 1
20290 20292 1
20290 20293 1
20292 20294 1
20295 20298 1
20295 20299 1
20295 20303 1
20295 20306 1
20296 20300 1
20296 20301 1
20296 20304 1
20297 20302 1
20297 20303 1
20297 20306 1
20298 20300 1
20298 20301 1
20298 20305 1
20299 20304 1
20299 20305 1
20300 20302 1
20300 20303 1
20301 20306 1
20302 20304 1
20302 20305 1
20304 20306 1
20307 20310 1
20307 20311 1
20307 20315 1
20307 20318 1
20308 20312 1
20308 20313 1
20308 20316 1
20309 20314 1
20309 20315 1
20309 20318 1
20310 20312 1
20310 20313 1
20310 20317 1
20311 20316 1
20311 20317 1
20312 20314 1
20312 20315 1
20313 20318 1
20314 20316 1
20314 20317 1
20316 20318 1
20319 20322 1
20319 20323 1
20319 20327 1
20319 20330 1
20320 20324 1
20320 20325 1
20320 20328 1
20321 20326 1
20321 20327 1
20321 20330 1
20322 20324 1
20322 20325 1
20322 20329 1
20323 20328 1
20323 20329 1
20324 20326 1
20324 20327 1
20325 20330 1
20326 20328 1
20326 20329 1
20328 20330 1
20331 20334 1
20331 20335 1
20331 20339 1
20331 20342 1
20332 20336 1
20332 20337 1
20332 20340 1
20333 20338 1
20333 20339 1
20333 20342 1
20334 20336 1
20334 20337 1
20334 20341 1
20335 20340 1
20335 20341 1
20336 20338 1
20336 20339 1
20337 20342 1
20338 20340 1
20338 20341 1
20340 20342 1
20343 20346 1
20343 20347 1
20343 20351 1
20343 20354 1
20344 20348 1
20344 20349 1
20344 20352 1
20345 20350 1
20345 20351 1
20345 20354 1
20346 20348 1
20346 20349 1
20346 20353 1
20347 20352 1
20347 20353 1
20348 20350 1
20348 20351 1
20349 20354 1
20350 20352 1
20350 20353 1
20352 20354 1
20355 20358 1
20355 20359 1
20355 20363 1
20355 20366 1
20356 20360 1
20356 20361 1
20356 20364 1
20357 20362 1
20357 20363 1
20357 20366 1
20358 20360 1
20358 20361 1
20358 20365 1
20359 20364 1
20359 20365 1
20360 20362 1
20360 20363 1
20361 20366 1
20362 20364 1
20362 20365 1
20364 20366 1
20367 20370 1
20367 20371 1
20367 20375 1
20367 20378 1
20368 20372 1
20368 20373 1
20368 20376 1
20369 20374 1
20369 20375 1
20369 20378 1
20370 20372 1
20370 20373 1
20370 20377 1
20371 20376 1
20371 20377 1
20372 20374 1
20372 20375 1
20373 20378 1
20374 20376 1
20374 20377 1
20376 20378 1
20379 20382 1
20379 20383 1
20379 20387 1
20379 20390 1
20380 20384 1
20380 20385 1
20380 20388 1
20381 20386 1
20381 20387 1
20381 20390 1
20382 20384 1
20382 20385 1
20382 20389 1
20383 20388 1
20383 20389 1
20384 20386 1
20384 20387 1
20385 20390 1
20386 20388 1
20386 20389 1
20388 20390 1
20391 20394 1
20391 20395 1
20391 20399 1
20391 20402 1
20392 20396 1
20392 20397 1
20392 20400 1
20393 20398 1
20393 20399 1
20393 20402 1
20394 20396 1
20394 20397 1
20394 20401 1
20395 20400 1
20395 20401 1
20396 20398 1
20396 20399 1
20397 20402 1
20398 20400 1
20398 20401 1
20400 20402 1
20403 20406 1
20403 20407 1
20403 20411 1
20403 20414 1
20404 20408 1
20404 20409 1
20404 20412 1
20405 20410 1
20405 20411 1
20405 20414 1
20406 20408 1
20406 20409 1
20406 20413 1
20407 20412 1
20407 20413 1
20408 20410 1
20408 20411 1
20409 20414 1
20410 20412 1
20410 20413 1
20412 20414 1
20415 20418 1
20415 20419 1
20415 20423 1
20415 20426 1
20416 20420 1
20416 20421 1
20416 20424 1
20417 20422 1
20417 20423 1
20417 20426 1
20418 20420 1
20418 20421 1
20418 20425 1
20419 20424 1
20419 20425 1
20420 20422 1
20420 20423 1
20421 20426 1
20422 20424 1
20422 20425 1
20424 20426 1
20427 20430 1
20427 20431 1
20427 20435 1
20427 20438 1
20428 20432 1
20428 20433 1
20428 20436 1
20429 20434 1
20429 20435 1
20429 20438 1
20430 20432 1
20430 20433 1
20430 20437 1
20431 20436 1
20431 20437 1
20432 20434 1
20432 20435 1
20433 20438 1
20434 20436 1
20434 20437 1
20436 20438 1
20439 20442 1
20439 20443 1
20439 20447 1
20439 20450 1
20440 20444 1
20440 20445 1
20440 20448 1
20441 20446 1
20441 20447 1
20441 20450 1
20442 20444 1
20442 20445 1
20442 20449 1
20443 20448 1
20443 20449 1
20444 20446 1
20444 20447 1
20445 20450 1
20446 20448 1
20446 20449 1
20448 20450 1
20451 20454 1
20451 20455 1
20451 20459 1
20451 20462 1
20452 20456 1
20452 20457 1
20452 20460 1
20453 20458 1
20453 20459 1
20453 20462 1
20454 20456 1
20454 20457 1
20454 20461 1
20455 20460 1
20455 20461 1
20456 20458 1
20456 20459 1
20457 20462 1
20458 20460 1
20458 20461 1
20460 20462 1
20463 20466 1
20463 20467 1
20463 20471 1
20463 20474 1
20464 20468 1
20464 20469 1
20464 20472 1
20465 20470 1
20465 20471 1
20465 20474 1
20466 20468 1
20466 20469 1
20466 20473 1
20467 20472 1
20467 20473 1
20468 20470 1
20468 20471 1
20469 20474 1
20470 20472 1
20470 20473 1
20472 20474 1
20475 20478 1
20475 20479 1
20475 20483 1
20475 20486 1
20476 20480 1
20476 20481 1
20476 20484 1
20477 20482 1
20477 20483 1
20477 20486 1
20478 20480 1
20478 20481 1
20478 20485 1
20479 20484 1
20479 20485 1
20480 20482 1
20480 20483 1
20481 20486 1
20482 20484 1
20482 20485 1
20484 20486 1
20487 20490 1
20487 20491 1
20487 20495 1
20487 20498 1
20488 20492 1
20488 20493 1
20488 20496 1
20489 20494 1
20489 20495 1
20489 20498 1
20490 20492 1
20490 20493 1
20490 20497 1
20491 20496 1
20491 20497 1
20492 20494 1
20492 20495 1
20493 20498 1
20494 20496 1
20494 20497 1
20496 20498 1
20499 20502 1
20499 20503 1
20499 20507 1
20499 20510 1
20500 20504 1
20500 20505 1
20500 20508 1
20501 20506 1
20501 20507 1
20501 20510 1
20502 20504 1
20502 20505 1
20502 20509 1
20503 20508 1
20503 20509 1
20504 20506 1
20504 20507 1
20505 20510 1
20506 20508 1
20506 20509 1
20508 20510 1
20511 20514 1
20511 20515 1
20511 20519 1
20511 20522 1
20512 20516 1
20512 20517 1
20512 20520 1
20513 20518 1
20513 20519 1
20513 20522 1
20514 20516 1
20514 20517 1
20514 20521 1
20515 20520 1
20515 20521 1
20516 20518 1
20516 20519 1
20517 20522 1
20518 20520 1
20518 20521 1
20520 20522 1
20523 20526 1
20523 20527 1
20523 20531 1
20523 20534 1
20524 20528 1
20524 20529 1
20524 20532 1
20525 20530 1
20525 20531 1
20525 20534 1
20526 20528 1
20526 20529 1
20526 20533 1
20527 20532 1
20527 20533 1
20528 20530 1
20528 20531 1
20529 20534 1
20530 20532 1
20530 20533 1
20532 20534 1
20535 20538 1
20535 20539 1
20535 20543 1
20535 20546 1
20536 20540 1
20536 20541 1
20536 20544 1
20537 20542 1
20537 20543 1
20537 20546 1
20538 20540 1
20538 20541 1
20538 20545 1
20539 20544 1
20539 20545 1
20540 20542 1
20540 20543 1
20541 20546 1
20542 20544 1
20542 20545 1
20544 20546 1
20547 20550 1
20547 20551 1
20547 20555 1
20547 20558 1
20548 20552 1
20548 20553 1
20548 20556 1
20549 20554 1
20549 20555 1
20549 20558 1
20550 20552 1
20550 20553 1
20550 20557 1
20551 20556 1
20551 20557 1
20552 20554 1
20552 20555 1
20553 20558 1
20554 20556 1
20554 20557 1
20556 20558 1
20559 20562 1
20559 20563 1
20559 20567 1
20559 20570 1
20560 20564 1
20560 20565 1
20560 20568 1
20561 20566 1
20561 20567 1
20561 20570 1
20562 20564 1
20562 20565 1
20562 20569 1
20563 20568 1
20563 20569 1
20564 20566 1
20564 20567 1
20565 20570 1
20566 20568 1
20566 20569 1
20568 20570 1
20571 20574 1
20571 20575 1
20571 20579 1
20571 20582 1
20572 20576 1
20572 20577 1
20572 20580 1
20573 20578 1
20573 20579 1
20573 20582 1
20574 20576 1
20574 20577 1
20574 20581 1
20575 20580 1
20575 20581 1
20576 20578 1
20576 20579 1
20577 20582 1
20578 20580 1
20578 20581 1
20580 20582 1
20583 20586 1
20583 20587 1
20583 20591 1
20583 20594 1
20584 20588 1
20584 20589 1
20584 20592 1
20585 20590 1
20585 20591 1
20585 20594 1
20586 20588 1
20586 20589 1
20586 20593 1
20587 20592 1
20587 20593 1
20588 20590 1
20588 20591 1
20589 20594 1
20590 20592 1
20590 20593 1
20592 20594 1
20595 20598 1
20595 20599 1
20595 20603 1
20595 20606 1
20596 20600 1
20596 20601 1
20596 20604 1
20597 20602 1
20597 20603 1
20597 20606 1
20598 20600 1
20598 20601 1
20598 20605 1
20599 20604 1
20599 20605 1
20600 20602 1
20600 20603 1
20601 20606 1
20602 20604 1
20602 20605 1
20604 20606 1
20607 20610 1
20607 20611 1
20607 20615 1
20607 20618 1
20608 20612 1
20608 20613 1
20608 20616 1
20609 20614 1
20609 20615 1
20609 20618 1
20610 20612 1
20610 20613 1
20610 20617 1
20611 20616 1
20611 20617 1
20612 20614 1
20612 20615 1
20613 20618 1
20614 20616 1
20614 20617 1
20616 20618 1
20619 20622 1
20619 20623 1
20619 20627 1
20619 20630 1
20620 20624 1
20620 20625 1
20620 20628 1
20621 20626 1
20621 20627 1
20621 20630 1
20622 20624 1
20622 20625 1
20622 20629 1
20623 20628 1
20623 20629 1
20624 20626 1
20624 20627 1
20625 20630 1
20626 20628 1
20626 20629 1
20628 20630 1
20631 20634 1
20631 20635 1
20631 20639 1
20631 20642 1
20632 20636 1
20632 20637 1
20632 20640 1
20633 20638 1
20633 20639 1
20633 20642 1
20634 20636 1
20634 20637 1
20634 20641 1
20635 20640 1
20635 20641 1
20636 20638 1
20636 20639 1
20637 20642 1
20638 20640 1
20638 20641 1
20640 20642 1
20643 20646 1
20643 20647 1
20643 20651 1
20643 20654 1
20644 20648 1
20644 20649 1
20644 20652 1
20645 20650 1
20645 20651 1
20645 20654 1
20646 20648 1
20646 20649 1
20646 20653 1
20647 20652 1
20647 20653 1
20648 20650 1
20648 20651 1
20649 20654 1
20650 20652 1
20650 20653 1
20652 20654 1
20655 20658 1
20655 20659 1
20655 20663 1
20655 20666 1
20656 20660 1
20656 20661 1
20656 20664 1
20657 20662 1
20657 20663 1
20657 20666 1
20658 20660 1
20658 20661 1
20658 20665 1
20659 20664 1
20659 20665 1
20660 20662 1
20660 20663 1
20661 20666 1
20662 20664 1
20662 20665 1
20664 20666 1
20667 20670 1
20667 20671 1
20667 20675 1
20667 20678 1
20668 20672 1
20668 20673 1
20668 20676 1
20669 20674 1
20669 20675 1
20669 20678 1
20670 20672 1
20670 20673 1
20670 20677 1
20671 20676 1
20671 20677 1
20672 20674 1
20672 20675 1
20673 20678 1
20674 20676 1
20674 20677 1
20676 20678 1
20679 20682 1
20679 20683 1
20679 20687 1
20679 20690 1
20680 20684 1
20680 20685 1
20680 20688 1
20681 20686 1
20681 20687 1
20681 20690 1
20682 20684 1
20682 20685 1
20682 20689 1
20683 20688 1
20683 20689 1
20684 20686 1
20684 20687 1
20685 20690 1
20686 20688 1
20686 20689 1
20688 20690 1
20691 20694 1
20691 20695 1
20691 20699 1
20691 20702 1
20692 20696 1
20692 20697 1
20692 20700 1
20693 20698 1
20693 20699 1
20693 20702 1
20694 20696 1
20694 20697 1
20694 20701 1
20695 20700 1
20695 20701 1
20696 20698 1
20696 20699 1
20697 20702 1
20698 20700 1
20698 20701 1
20700 20702 1
20703 20706 1
20703 20707 1
20703 20711 1
20703 20714 1
20704 20708 1
20704 20709 1
20704 20712 1
20705 20710 1
20705 20711 1
20705 20714 1
20706 20708 1
20706 20709 1
20706 20713 1
20707 20712 1
20707 20713 1
20708 20710 1
20708 20711 1
20709 20714 1
20710 20712 1
20710 20713 1
20712 20714 1
20715 20718 1
20715 20719 1
20715 20723 1
20715 20726 1
20716 20720 1
20716 20721 1
20716 20724 1
20717 20722 1
20717 20723 1
20717 20726 1
20718 20720 1
20718 20721 1
20718 20725 1
20719 20724 1
20719 20725 1
20720 20722 1
20720 20723 1
20721 20726 1
20722 20724 1
20722 20725 1
20724 20726 1
20727 20730 1
20727 20731 1
20727 20735 1
20727 20738 1
20728 20732 1
20728 20733 1
20728 20736 1
20729 20734 1
20729 20735 1
20729 20738 1
20730 20732 1
20730 20733 1
20730 20737 1
20731 20736 1
20731 20737 1
20732 20734 1
20732 20735 1
20733 20738 1
20734 20736 1
20734 20737 1
20736 20738 1
20739 20742 1
20739 20743 1
20739 20747 1
20739 20750 1
20740 20744 1
20740 20745 1
20740 20748 1
20741 20746 1
20741 20747 1
20741 20750 1
20742 20744 1
20742 20745 1
20742 20749 1
20743 20748 1
20743 20749 1
20744 20746 1
20744 20747 1
20745 20750 1
20746 20748 1
20746 20749 1
20748 20750 1
20751 20754 1
20751 20755 1
20751 20759 1
20751 20762 1
20752 20756 1
20752 20757 1
20752 20760 1
20753 20758 1
20753 20759 1
20753 20762 1
20754 20756 1
20754 20757 1
20754 20761 1
20755 20760 1
20755 20761 1
20756 20758 1
20756 20759 1
20757 20762 1
20758 20760 1
20758 20761 1
20760 20762 1
20763 20766 1
20763 20767 1
20763 20771 1
20763 20774 1
20764 20768 1
20764 20769 1
20764 20772 1
20765 20770 1
20765 20771 1
20765 20774 1
20766 20768 1
20766 20769 1
20766 20773 1
20767 20772 1
20767 20773 1
20768 20770 1
20768 20771 1
20769 20774 1
20770 20772 1
20770 20773 1
20772 20774 1
20775 20778 1
20775 20779 1
20775 20783 1
20775 20786 1
20776 20780 1
20776 20781 1
20776 20784 1
20777 20782 1
20777 20783 1
20777 20786 1
20778 20780 1
20778 20781 1
20778 20785 1
20779 20784 1
20779 20785 1
20780 20782 1
20780 20783 1
20781 20786 1
20782 20784 1
20782 20785 1
20784 20786 1
20787 20790 1
20787 20791 1
20787 20795 1
20787 20798 1
20788 20792 1
20788 20793 1
20788 20796 1
20789 20794 1
20789 20795 1
20789 20798 1
20790 20792 1
20790 20793 1
20790 20797 1
20791 20796 1
20791 20797 1
20792 20794 1
20792 20795 1
20793 20798 1
20794 20796 1
20794 20797 1
20796 20798 1
20799 20802 1
20799 20803 1
20799 20807 1
20799 20810 1
20800 20804 1
20800 20805 1
20800 20808 1
20801 20806 1
20801 20807 1
20801 20810 1
20802 20804 1
20802 20805 1
20802 20809 1
20803 20808 1
20803 20809 1
20804 20806 1
20804 20807 1
20805 20810 1
20806 20808 1
20806 20809 1
20808 20810 1
20811 20814 1
20811 20815 1
20811 20819 1
20811 20822 1
20812 20816 1
20812 20817 1
20812 20820 1
20813 20818 1
20813 20819 1
20813 20822 1
20814 20816 1
20814 20817 1
20814 20821 1
20815 20820 1
20815 20821 1
20816 20818 1
20816 20819 1
20817 20822 1
20818 20820 1
20818 20821 1
20820 20822 1
20823 20826 1
20823 20827 1
20823 20831 1
20823 20834 1
20824 20828 1
20824 20829 1
20824 20832 1
20825 20830 1
20825 20831 1
20825 20834 1
20826 20828 1
20826 20829 1
20826 20833 1
20827 20832 1
20827 20833 1
20828 20830 1
20828 20831 1
20829 20834 1
20830 20832 1
20830 20833 1
20832 20834 1
20835 20838 1
20835 20839 1
20835 20843 1
20835 20846 1
20836 20840 1
20836 20841 1
20836 20844 1
20837 20842 1
20837 20843 1
20837 20846 1
20838 20840 1
20838 20841 1
20838 20845 1
20839 20844 1
20839 20845 1
20840 20842 1
20840 20843 1
20841 20846 1
20842 20844 1
20842 20845 1
20844 20846 1
20847 20850 1
20847 20851 1
20847 20855 1
20847 20858 1
20848 20852 1
20848 20853 1
20848 20856 1
20849 20854 1
20849 20855 1
20849 20858 1
20850 20852 1
20850 20853 1
20850 20857 1
20851 20856 1
20851 20857 1
20852 20854 1
20852 20855 1
20853 20858 1
20854 20856 1
20854 20857 1
20856 20858 1
20859 20862 1
20859 20863 1
20859 20867 1
20859 20870 1
20860 20864 1
20860 20865 1
20860 20868 1
20861 20866 1
20861 20867 1
20861 20870 1
20862 20864 1
20862 20865 1
20862 20869 1
20863 20868 1
20863 20869 1
20864 20866 1
20864 20867 1
20865 20870 1
20866 20868 1
20866 20869 1
20868 20870 1
20871 20874 1
20871 20875 1
20871 20879 1
20871 20882 1
20872 20876 1
20872 20877 1
20872 20880 1
20873 20878 1
20873 20879 1
20873 20882 1
20874 20876 1
20874 20877 1
20874 20881 1
20875 20880 1
20875 20881 1
20876 20878 1
20876 20879 1
20877 20882 1
20878 20880 1
20878 20881 1
20880 20882 1
20883 20886 1
20883 20887 1
20883 20891 1
20883 20894 1
20884 20888 1
20884 20889 1
20884 20892 1
20885 20890 1
20885 20891 1
20885 20894 1
20886 20888 1
20886 20889 1
20886 20893 1
20887 20892 1
20887 20893 1
20888 20890 1
20888 20891 1
20889 20894 1
20890 20892 1
20890 20893 1
20892 20894 1
20895 20898 1
20895 20899 1
20895 20903 1
20895 20906 1
20896 20900 1
20896 20901 1
20896 20904 1
20897 20902 1
20897 20903 1
20897 20906 1
20898 20900 1
20898 20901 1
20898 20905 1
20899 20904 1
20899 20905 1
20900 20902 1
20900 20903 1
20901 20906 1
20902 20904 1
20902 20905 1
20904 20906 1
20907 20910 1
20907 20911 1
20907 20915 1
20907 20918 1
20908 20912 1
20908 20913 1
20908 20916 1
20909 20914 1
20909 20915 1
20909 20918 1
20910 20912 1
20910 20913 1
20910 20917 1
20911 20916 1
20911 20917 1
20912 20914 1
20912 20915 1
20913 20918 1
20914 20916 1
20914 20917 1
20916 20918 1
20919 20922 1
20919 20923 1
20919 20927 1
20919 20930 1
20920 20924 1
20920 20925 1
20920 20928 1
20921 20926 1
20921 20927 1
20921 20930 1
20922 20924 1
20922 20925 1
20922 20929 1
20923 20928 1
20923 20929 1
20924 20926 1
20924 20927 1
20925 20930 1
20926 20928 1
20926 20929 1
20928 20930 1
20931 20934 1
20931 20935 1
20931 20939 1
20931 20942 1
20932 20936 1
20932 20937 1
20932 20940 1
20933 20938 1
20933 20939 1
20933 20942 1
20934 20936 1
20934 20937 1
20934 20941 1
20935 20940 1
20935 20941 1
20936 20938 1
20936 20939 1
20937 20942 1
20938 20940 1
20938 20941 1
20940 20942 1
20943 20946 1
20943 20947 1
20943 20951 1
20943 20954 1
20944 20948 1
20944 20949 1
20944 20952 1
20945 20950 1
20945 20951 1
20945 20954 1
20946 20948 1
20946 20949 1
20946 20953 1
20947 20952 1
20947 20953 1
20948 20950 1
20948 20951 1
20949 20954 1
20950 20952 1
20950 20953 1
20952 20954 1
20955 20958 1
20955 20959 1
20955 20963 1
20955 20966 1
20956 20960 1
20956 20961 1
20956 20964 1
20957 20962 1
20957 20963 1
20957 20966 1
20958 20960 1
20958 20961 1
20958 20965 1
20959 20964 1
20959 20965 1
20960 20962 1
20960 20963 1
20961 20966 1
20962 20964 1
20962 20965 1
20964 20966 1
20967 20970 1
20967 20971 1
20967 20975 1
20967 20978 1
20968 20972 1
20968 20973 1
20968 20976 1
20969 20974 1
20969 20975 1
20969 20978 1
20970 20972 1
20970 20973 1
20970 20977 1
20971 20976 1
20971 20977 1
20972 20974 1
20972 20975 1
20973 20978 1
20974 20976 1
20974 20977 1
20976 20978 1
20979 20982 1
20979 20983 1
20979 20987 1
20979 20990 1
20980 20984 1
20980 20985 1
20980 20988 1
20981 20986 1
20981 20987 1
20981 20990 1
20982 20984 1
20982 20985 1
20982 20989 1
20983 20988 1
20983 20989 1
20984 20986 1
20984 20987 1
20985 20990 1
20986 20988 1
20986 20989 1
20988 20990 1
20991 20994 1
20991 20995 1
20991 20999 1
20991 21002 1
20992 20996 1
20992 20997 1
20992 21000 1
20993 20998 1
20993 20999 1
20993 21002 1
20994 20996 1
20994 20997 1
20994 21001 1
20995 21000 1
20995 21001 1
20996 20998 1
20996 20999 1
20997 21002 1
20998 21000 1
20998 21001 1
21000 21002 1
21003 21006 1
21003 21007 1
21003 21011 1
21003 21014 1
21004 21008 1
21004 21009 1
21004 21012 1
21005 21010 1
21005 21011 1
21005 21014 1
21006 21008 1
21006 21009 1
21006 21013 1
21007 21012 1
21007 21013 1
21008 21010 1
21008 21011 1
21009 21014 1
21010 21012 1
21010 21013 1
21012 21014 1
21015 21018 1
21015 21019 1
21015 21023 1
21015 21026 1
21016 21020 1
21016 21021 1
21016 21024 1
21017 21022 1
21017 21023 1
21017 21026 1
21018 21020 1
21018 21021 1
21018 21025 1
21019 21024 1
21019 21025 1
21020 21022 1
21020 21023 1
21021 21026 1
21022 21024 1
21022 21025 1
21024 21026 1
21027 21030 1
21027 21031 1
21027 21035 1
21027 21038 1
21028 21032 1
21028 21033 1
21028 21036 1
21029 21034 1
21029 21035 1
21029 21038 1
21030 21032 1
21030 21033 1
21030 21037 1
21031 21036 1
21031 21037 1
21032 21034 1
21032 21035 1
21033 21038 1
21034 21036 1
21034 21037 1
21036 21038 1
21039 21042 1
21039 21043 1
21039 21047 1
21039 21050 1
21040 21044 1
21040 21045 1
21040 21048 1
21041 21046 1
21041 21047 1
21041 21050 1
21042 21044 1
21042 21045 1
21042 21049 1
21043 21048 1
21043 21049 1
21044 21046 1
21044 21047 1
21045 21050 1
21046 21048 1
21046 21049 1
21048 21050 1
21051 21054 1
21051 21055 1
21051 21059 1
21051 21062 1
21052 21056 1
21052 21057 1
21052 21060 1
21053 21058 1
21053 21059 1
21053 21062 1
21054 21056 1
21054 21057 1
21054 21061 1
21055 21060 1
21055 21061 1
21056 21058 1
21056 21059 1
21057 21062 1
21058 21060 1
21058 21061 1
21060 21062 1
21063 21066 1
21063 21067 1
21063 21071 1
21063 21074 1
21064 21068 1
21064 21069 1
21064 21072 1
21065 21070 1
21065 21071 1
21065 21074 1
21066 21068 1
21066 21069 1
21066 21073 1
21067 21072 1
21067 21073 1
21068 21070 1
21068 21071 1
21069 21074 1
21070 21072 1
21070 21073 1
21072 21074 1
21075 21078 1
21075 21079 1
21075 21083 1
21075 21086 1
21076 21080 1
21076 21081 1
21076 21084 1
21077 21082 1
21077 21083 1
21077 21086 1
21078 21080 1
21078 21081 1
21078 21085 1
21079 21084 1
21079 21085 1
21080 21082 1
21080 21083 1
21081 21086 1
21082 21084 1
21082 21085 1
21084 21086 1
21087 21090 1
21087 21091 1
21087 21095 1
21087 21098 1
21088 21092 1
21088 21093 1
21088 21096 1
21089 21094 1
21089 21095 1
21089 21098 1
21090 21092 1
21090 21093 1
21090 21097 1
21091 21096 1
21091 21097 1
21092 21094 1
21092 21095 1
21093 21098 1
21094 21096 1
21094 21097 1
21096 21098 1
21099 21102 1
21099 21103 1
21099 21107 1
21099 21110 1
21100 21104 1
21100 21105 1
21100 21108 1
21101 21106 1
21101 21107 1
21101 21110 1
21102 21104 1
21102 21105 1
21102 21109 1
21103 21108 1
21103 21109 1
21104 21106 1
21104 21107 1
21105 21110 1
21106 21108 1
21106 21109 1
21108 21110 1
21111 21114 1
21111 21115 1
21111 21119 1
21111 21122 1
21112 21116 1
21112 21117 1
21112 21120 1
21113 21118 1
21113 21119 1
21113 21122 1
21114 21116 1
21114 21117 1
21114 21121 1
21115 21120 1
21115 21121 1
21116 21118 1
21116 21119 1
21117 21122 1
21118 21120 1
21118 21121 1
21120 21122 1
21123 21126 1
21123 21127 1
21123 21131 1
21123 21134 1
21124 21128 1
21124 21129 1
21124 21132 1
21125 21130 1
21125 21131 1
21125 21134 1
21126 21128 1
21126 21129 1
21126 21133 1
21127 21132 1
21127 21133 1
21128 21130 1
21128 21131 1
21129 21134 1
21130 21132 1
21130 21133 1
21132 21134 1
21135 21138 1
21135 21139 1
21135 21143 1
21135 21146 1
21136 21140 1
21136 21141 1
21136 21144 1
21137 21142 1
21137 21143 1
21137 21146 1
21138 21140 1
21138 21141 1
21138 21145 1
21139 21144 1
21139 21145 1
21140 21142 1
21140 21143 1
21141 21146 1
21142 21144 1
21142 21145 1
21144 21146 1
21147 21150 1
21147 21151 1
21147 21155 1
21147 21158 1
21148 21152 1
21148 21153 1
21148 21156 1
21149 21154 1
21149 21155 1
21149 21158 1
21150 21152 1
21150 21153 1
21150 21157 1
21151 21156 1
21151 21157 1
21152 21154 1
21152 21155 1
21153 21158 1
21154 21156 1
21154 21157 1
21156 21158 1
21159 21162 1
21159 21163 1
21159 21167 1
21159 21170 1
21160 21164 1
21160 21165 1
21160 21168 1
21161 21166 1
21161 21167 1
21161 21170 1
21162 21164 1
21162 21165 1
21162 21169 1
21163 21168 1
21163 21169 1
21164 21166 1
21164 21167 1
21165 21170 1
21166 21168 1
21166 21169 1
21168 21170 1
21171 21174 1
21171 21175 1
21171 21179 1
21171 21182 1
21172 21176 1
21172 21177 1
21172 21180 1
21173 21178 1
21173 21179 1
21173 21182 1
21174 21176 1
21174 21177 1
21174 21181 1
21175 21180 1
21175 21181 1
21176 21178 1
21176 21179 1
21177 21182 1
21178 21180 1
21178 21181 1
21180 21182 1
21183 21186 1
21183 21187 1
21183 21191 1
21183 21194 1
21184 21188 1
21184 21189 1
21184 21192 1
21185 21190 1
21185 21191 1
21185 21194 1
21186 21188 1
21186 21189 1
21186 21193 1
21187 21192 1
21187 21193 1
21188 21190 1
21188 21191 1
21189 21194 1
21190 21192 1
21190 21193 1
21192 21194 1
21195 21198 1
21195 21199 1
21195 21203 1
21195 21206 1
21196 21200 1
21196 21201 1
21196 21204 1
21197 21202 1
21197 21203 1
21197 21206 1
21198 21200 1
21198 21201 1
21198 21205 1
21199 21204 1
21199 21205 1
21200 21202 1
21200 21203 1
21201 21206 1
21202 21204 1
21202 21205 1
21204 21206 1
21207 21210 1
21207 21211 1
21207 21215 1
21207 21218 1
21208 21212 1
21208 21213 1
21208 21216 1
21209 21214 1
21209 21215 1
21209 21218 1
21210 21212 1
21210 21213 1
21210 21217 1
21211 21216 1
21211 21217 1
21212 21214 1
21212 21215 1
21213 21218 1
21214 21216 1
21214 21217 1
21216 21218 1
21219 21222 1
21219 21223 1
21219 21227 1
21219 21230 1
21220 21224 1
21220 21225 1
21220 21228 1
21221 21226 1
21221 21227 1
21221 21230 1
21222 21224 1
21222 21225 1
21222 21229 1
21223 21228 1
21223 21229 1
21224 21226 1
21224 21227 1
21225 21230 1
21226 21228 1
21226 21229 1
21228 21230 1
21231 21234 1
21231 21235 1
21231 21239 1
21231 21242 1
21232 21236 1
21232 21237 1
21232 21240 1
21233 21238 1
21233 21239 1
21233 21242 1
21234 21236 1
21234 21237 1
21234 21241 1
21235 21240 1
21235 21241 1
21236 21238 1
21236 21239 1
21237 21242 1
21238 21240 1
21238 21241 1
21240 21242 1
21243 21246 1
21243 21247 1
21243 21251 1
21243 21254 1
21244 21248 1
21244 21249 1
21244 21252 1
21245 21250 1
21245 21251 1
21245 21254 1
21246 21248 1
21246 21249 1
21246 21253 1
21247 21252 1
21247 21253 1
21248 21250 1
21248 21251 1
21249 21254 1
21250 21252 1
21250 21253 1
21252 21254 1
21255 21258 1
21255 21259 1
21255 21263 1
21255 21266 1
21256 21260 1
21256 21261 1
21256 21264 1
21257 21262 1
21257 21263 1
21257 21266 1
21258 21260 1
21258 21261 1
21258 21265 1
21259 21264 1
21259 21265 1
21260 21262 1
21260 21263 1
21261 21266 1
21262 21264 1
21262 21265 1
21264 21266 1
21267 21270 1
21267 21271 1
21267 21275 1
21267 21278 1
21268 21272 1
21268 21273 1
21268 21276 1
21269 21274 1
21269 21275 1
21269 21278 1
21270 21272 1
21270 21273 1
21270 21277 1
21271 21276 1
21271 21277 1
21272 21274 1
21272 21275 1
21273 21278 1
21274 21276 1
21274 21277 1
21276 21278 1
21279 21282 1
21279 21283 1
21279 21287 1
21279 21290 1
21280 21284 1
21280 21285 1
21280 21288 1
21281 21286 1
21281 21287 1
21281 21290 1
21282 21284 1
21282 21285 1
21282 21289 1
21283 21288 1
21283 21289 1
21284 21286 1
21284 21287 1
21285 21290 1
21286 21288 1
21286 21289 1
21288 21290 1
21291 21294 1
21291 21295 1
21291 21299 1
21291 21302 1
21292 21296 1
21292 21297 1
21292 21300 1
21293 21298 1
21293 21299 1
21293 21302 1
21294 21296 1
21294 21297 1
21294 21301 1
21295 21300 1
21295 21301 1
21296 21298 1
21296 21299 1
21297 21302 1
21298 21300 1
21298 21301 1
21300 21302 1
21303 21306 1
21303 21307 1
21303 21311 1
21303 21314 1
21304 21308 1
21304 21309 1
21304 21312 1
21305 21310 1
21305 21311 1
21305 21314 1
21306 21308 1
21306 21309 1
21306 21313 1
21307 21312 1
21307 21313 1
21308 21310 1
21308 21311 1
21309 21314 1
21310 21312 1
21310 21313 1
21312 21314 1
21315 21318 1
21315 21319 1
21315 21323 1
21315 21326 1
21316 21320 1
21316 21321 1
21316 21324 1
21317 21322 1
21317 21323 1
21317 21326 1
21318 21320 1
21318 21321 1
21318 21325 1
21319 21324 1
21319 21325 1
21320 21322 1
21320 21323 1
21321 21326 1
21322 21324 1
21322 21325 1
21324 21326 1
21327 21330 1
21327 21331 1
21327 21335 1
21327 21338 1
21328 21332 1
21328 21333 1
21328 21336 1
21329 21334 1
21329 21335 1
21329 21338 1
21330 21332 1
21330 21333 1
21330 21337 1
21331 21336 1
21331 21337 1
21332 21334 1
21332 21335 1
21333 21338 1
21334 21336 1
21334 21337 1
21336 21338 1
21339 21342 1
21339 21343 1
21339 21347 1
21339 21350 1
21340 21344 1
21340 21345 1
21340 21348 1
21341 21346 1
21341 21347 1
21341 21350 1
21342 21344 1
21342 21345 1
21342 21349 1
21343 21348 1
21343 21349 1
21344 21346 1
21344 21347 1
21345 21350 1
21346 21348 1
21346 21349 1
21348 21350 1
21351 21354 1
21351 21355 1
21351 21359 1
21351 21362 1
21352 21356 1
21352 21357 1
21352 21360 1
21353 21358 1
21353 21359 1
21353 21362 1
21354 21356 1
21354 21357 1
21354 21361 1
21355 21360 1
21355 21361 1
21356 21358 1
21356 21359 1
21357 21362 1
21358 21360 1
21358 21361 1
21360 21362 1
21363 21366 1
21363 21367 1
21363 21371 1
21363 21374 1
21364 21368 1
21364 21369 1
21364 21372 1
21365 21370 1
21365 21371 1
21365 21374 1
21366 21368 1
21366 21369 1
21366 21373 1
21367 21372 1
21367 21373 1
21368 21370 1
21368 21371 1
21369 21374 1
21370 21372 1
21370 21373 1
21372 21374 1
21375 21378 1
21375 21379 1
21375 21383 1
21375 21386 1
21376 21380 1
21376 21381 1
21376 21384 1
21377 21382 1
21377 21383 1
21377 21386 1
21378 21380 1
21378 21381 1
21378 21385 1
21379 21384 1
21379 21385 1
21380 21382 1
21380 21383 1
21381 21386 1
21382 21384 1
21382 21385 1
21384 21386 1
21387 21390 1
21387 21391 1
21387 21395 1
21387 21398 1
21388 21392 1
21388 21393 1
21388 21396 1
21389 21394 1
21389 21395 1
21389 21398 1
21390 21392 1
21390 21393 1
21390 21397 1
21391 21396 1
21391 21397 1
21392 21394 1
21392 21395 1
21393 21398 1
21394 21396 1
21394 21397 1
21396 21398 1
21399 21402 1
21399 21403 1
21399 21407 1
21399 21410 1
21400 21404 1
21400 21405 1
21400 21408 1
21401 21406 1
21401 21407 1
21401 21410 1
21402 21404 1
21402 21405 1
21402 21409 1
21403 21408 1
21403 21409 1
21404 21406 1
21404 21407 1
21405 21410 1
21406 21408 1
21406 21409 1
21408 21410 1
21411 21414 1
21411 21415 1
21411 21419 1
21411 21422 1
21412 21416 1
21412 21417 1
21412 21420 1
21413 21418 1
21413 21419 1
21413 21422 1
21414 21416 1
21414 21417 1
21414 21421 1
21415 21420 1
21415 21421 1
21416 21418 1
21416 21419 1
21417 21422 1
21418 21420 1
21418 21421 1
21420 21422 1
21423 21426 1
21423 21427 1
21423 21431 1
21423 21434 1
21424 21428 1
21424 21429 1
21424 21432 1
21425 21430 1
21425 21431 1
21425 21434 1
21426 21428 1
21426 21429 1
21426 21433 1
21427 21432 1
21427 21433 1
21428 21430 1
21428 21431 1
21429 21434 1
21430 21432 1
21430 21433 1
21432 21434 1
21435 21438 1
21435 21439 1
21435 21443 1
21435 21446 1
21436 21440 1
21436 21441 1
21436 21444 1
21437 21442 1
21437 21443 1
21437 21446 1
21438 21440 1
21438 21441 1
21438 21445 1
21439 21444 1
21439 21445 1
21440 21442 1
21440 21443 1
21441 21446 1
21442 21444 1
21442 21445 1
21444 21446 1
21447 21450 1
21447 21451 1
21447 21455 1
21447 21458 1
21448 21452 1
21448 21453 1
21448 21456 1
21449 21454 1
21449 21455 1
21449 21458 1
21450 21452 1
21450 21453 1
21450 21457 1
21451 21456 1
21451 21457 1
21452 21454 1
21452 21455 1
21453 21458 1
21454 21456 1
21454 21457 1
21456 21458 1
21459 21462 1
21459 21463 1
21459 21467 1
21459 21470 1
21460 21464 1
21460 21465 1
21460 21468 1
21461 21466 1
21461 21467 1
21461 21470 1
21462 21464 1
21462 21465 1
21462 21469 1
21463 21468 1
21463 21469 1
21464 21466 1
21464 21467 1
21465 21470 1
21466 21468 1
21466 21469 1
21468 21470 1
21471 21474 1
21471 21475 1
21471 21479 1
21471 21482 1
21472 21476 1
21472 21477 1
21472 21480 1
21473 21478 1
21473 21479 1
21473 21482 1
21474 21476 1
21474 21477 1
21474 21481 1
21475 21480 1
21475 21481 1
21476 21478 1
21476 21479 1
21477 21482 1
21478 21480 1
21478 21481 1
21480 21482 1
21483 21486 1
21483 21487 1
21483 21491 1
21483 21494 1
21484 21488 1
21484 21489 1
21484 21492 1
21485 21490 1
21485 21491 1
21485 21494 1
21486 21488 1
21486 21489 1
21486 21493 1
21487 21492 1
21487 21493 1
21488 21490 1
21488 21491 1
21489 21494 1
21490 21492 1
21490 21493 1
21492 21494 1
21495 21498 1
21495 21499 1
21495 21503 1
21495 21506 1
21496 21500 1
21496 21501 1
21496 21504 1
21497 21502 1
21497 21503 1
21497 21506 1
21498 21500 1
21498 21501 1
21498 21505 1
21499 21504 1
21499 21505 1
21500 21502 1
21500 21503 1
21501 21506 1
21502 21504 1
21502 21505 1
21504 21506 1

[ angles ]
; ai aj ak funct params
11341 1 14857 1 149.00000 418.400000
11341 2 15525 1 149.00000 418.400000
11341 3 15706 1 149.00000 418.400000
11341 4 11715 1 149.00000 418.400000
11342 5 11486 1 149.00000 418.400000
11342 6 21636 1 149.00000 418.400000
11343 7 15632 1 149.00000 418.400000
11343 8 16439 1 149.00000 418.400000
11343 9 11776 1 149.00000 418.400000
11343 10 12441 1 149.00000 418.400000
11344 11 12263 1 149.00000 418.400000
11344 12 12590 1 149.00000 418.400000
11344 13 13579 1 149.00000 418.400000
11345 14 11383 1 149.00000 418.400000
11345 15 13507 1 149.00000 418.400000
11345 16 13768 1 149.00000 418.400000
11345 17 12525 1 149.00000 418.400000
12352 18 21963 1 149.00000 418.400000
11346 19 22002 1 149.00000 418.400000
11346 20 14128 1 149.00000 418.400000
11346 21 16796 1 149.00000 418.400000
11347 22 15109 1 149.00000 418.400000
11347 23 16038 1 149.00000 418.400000
11347 24 16600 1 149.00000 418.400000
11347 25 12818 1 149.00000 418.400000
11348 26 12258 1 149.00000 418.400000
11348 27 13809 1 149.00000 418.400000
11348 28 14958 1 149.00000 418.400000
11348 29 16314 1 149.00000 418.400000
11349 30 21222 1 149.00000 418.400000
11349 31 17888 1 149.00000 418.400000
11349 32 13834 1 149.00000 418.400000
11350 33 14165 1 149.00000 418.400000
11350 34 15444 1 149.00000 418.400000
11350 35 12755 1 149.00000 418.400000
11350 36 15124 1 149.00000 418.400000
11351 37 14113 1 149.00000 418.400000
11351 38 13466 1 149.00000 418.400000
11351 39 12681 1 149.00000 418.400000
11351 40 14007 1 149.00000 418.400000
11352 41 15102 1 149.00000 418.400000
11352 42 14481 1 149.00000 418.400000
11352 43 15750 1 149.00000 418.400000
11352 44 16115 1 149.00000 418.400000
11353 45 15218 1 149.00000 418.400000
11353 46 16782 1 149.00000 418.400000
11353 47 14192 1 149.00000 418.400000
11353 48 15585 1 149.00000 418.400000
11354 49 14467 1 149.00000 418.400000
11354 50 14793 1 149.00000 418.400000
11354 51 13917 1 149.00000 418.400000
11354 52 12199 1 149.00000 418.400000
11355 53 13983 1 149.00000 418.400000
11355 54 12656 1 149.00000 418.400000
11355 55 15692 1 149.00000 418.400000
11355 56 12271 1 149.00000 418.400000
11356 57 14011 1 149.00000 418.400000
11356 58 13843 1 149.00000 418.400000
11356 59 11837 1 149.00000 418.400000
11356 60 15279 1 149.00000 418.400000
11357 61 16992 1 149.00000 418.400000
11357 62 12446 1 149.00000 418.400000
11357 63 11386 1 149.00000 418.400000
11357 64 12178 1 149.00000 418.400000
11358 65 11550 1 149.00000 418.400000
11358 66 15886 1 149.00000 418.400000
11358 67 15931 1 149.00000 418.400000
11359 68 16468 1 149.00000 418.400000
11359 69 14892 1 149.00000 418.400000
11360 70 15166 1 149.00000 418.400000
11360 71 13795 1 149.00000 418.400000
11360 72 16228 1 149.00000 418.400000
11360 73 15822 1 149.00000 418.400000
11361 74 21738 1 149.00000 418.400000
11361 75 21726 1 149.00000 418.400000
11361 76 15683 1 149.00000 418.400000
11361 77 16494 1 149.00000 418.400000
11362 78 12448 1 149.00000 418.400000
11362 79 11789 1 149.00000 418.400000
11362 80 15058 1 149.00000 418.400000
11362 81 14625 1 149.00000 418.400000
11363 82 13767 1 149.00000 418.400000
11363 83 16497 1 149.00000 418.400000
11363 84 14643 1 149.00000 418.400000
11363 85 16349 1 149.00000 418.400000
13525 86 13553 1 149.00000 418.400000
11364 87 13149 1 149.00000 418.400000
11364 88 13553 1 149.00000 418.400000
11364 89 15686 1 149.00000 418.400000
11365 90 22041 1 149.00000 418.400000
11365 91 15786 1 149.00000 418.400000
11365 92 15390 1 149.00000 418.400000
11366 93 13730 1 149.00000 418.400000
11366 94 13485 1 149.00000 418.400000
11366 95 16080 1 149.00000 418.400000
11366 96 12634 1 149.00000 418.400000
11367 97 15426 1 149.00000 418.400000
11367 98 12960 1 149.00000 418.400000
11367 99 13833 1 149.00000 418.400000
11367 100 15948 1 149.00000 418.400000
11368 101 11640 1 149.00000 418.400000
11368 102 13929 1 149.00000 418.400000
11368 103 12414 1 149.00000 418.400000
11368 104 16089 1 149.00000 418.400000
11369 105 12103 1 149.00000 418.400000
11369 106 16447 1 149.00000 418.400000
11369 107 15852 1 149.00000 418.400000
11369 108 16092 1 149.00000 418.400000
11370 109 14614 1 149.00000 418.400000
11370 110 16015 1 149.00000 418.400000
11370 111 13496 1 149.00000 418.400000
11370 112 15726 1 149.00000 418.400000
11371 113 11779 1 149.00000 418.400000
11371 114 12541 1 149.00000 418.400000
11371 115 16002 1 149.00000 418.400000
11371 116 11841 1 149.00000 418.400000
11372 117 14298 1 149.00000 418.400000
11372 118 11838 1 149.00000 418.400000
11372 119 15046 1 149.00000 418.400000
11372 120 12610 1 149.00000 418.400000
11373 121 16468 1 149.00000 418.400000
11373 122 22338 1 149.00000 418.400000
11374 123 11479 1 149.00000 418.400000
11374 124 16381 1 149.00000 418.400000
11374 125 19230 1 149.00000 418.400000
11375 126 11846 1 149.00000 418.400000
11375 127 11377 1 149.00000 418.400000
11375 128 11852 1 149.00000 418.400000
11375 129 11738 1 149.00000 418.400000
11376 130 12840 1 149.00000 418.400000
11376 131 13701 1 149.00000 418.400000
11376 132 13621 1 149.00000 418.400000
11376 133 15480 1 149.00000 418.400000
11377 134 13185 1 149.00000 418.400000
11377 135 13471 1 149.00000 418.400000
11377 136 15154 1 149.00000 418.400000
11378 137 18474 1 149.00000 418.400000
11378 138 15141 1 149.00000 418.400000
11378 139 12218 1 149.00000 418.400000
11379 140 12615 1 149.00000 418.400000
11379 141 13664 1 149.00000 418.400000
11379 142 18846 1 149.00000 418.400000
11379 143 11869 1 149.00000 418.400000
11380 144 15138 1 149.00000 418.400000
11380 145 12685 1 149.00000 418.400000
11380 146 12227 1 149.00000 418.400000
11380 147 12591 1 149.00000 418.400000
13812 148 14964 1 149.00000 418.400000
11381 149 14769 1 149.00000 418.400000
11381 150 14964 1 149.00000 418.400000
11381 151 11653 1 149.00000 418.400000
11382 152 14547 1 149.00000 418.400000
11382 153 11799 1 149.00000 418.400000
11382 154 14655 1 149.00000 418.400000
11382 155 11856 1 149.00000 418.400000
11383 156 12119 1 149.00000 418.400000
11383 157 13417 1 149.00000 418.400000
11383 158 14012 1 149.00000 418.400000
13538 159 13654 1 149.00000 418.400000
11384 160 11685 1 149.00000 418.400000
11384 161 12696 1 149.00000 418.400000
11384 162 15099 1 149.00000 418.400000
11385 163 13182 1 149.00000 418.400000
11385 164 13405 1 149.00000 418.400000
11385 165 16024 1 149.00000 418.400000
11385 166 14607 1 149.00000 418.400000
11386 167 13665 1 149.00000 418.400000
11386 168 19506 1 149.00000 418.400000
11386 169 14077 1 149.00000 418.400000
11387 170 16092 1 149.00000 418.400000
11387 171 12077 1 149.00000 418.400000
11387 172 13396 1 149.00000 418.400000
11387 173 15493 1 149.00000 418.400000
11388 174 21162 1 149.00000 418.400000
11388 175 15012 1 149.00000 418.400000
11388 176 11531 1 149.00000 418.400000
11388 177 16516 1 149.00000 418.400000
17762 178 18462 1 149.00000 418.400000
16054 179 18462 1 149.00000 418.400000
11389 180 12716 1 149.00000 418.400000
11389 181 21600 1 149.00000 418.400000
11389 182 15932 1 149.00000 418.400000
11389 183 15997 1 149.00000 418.400000
11390 184 14418 1 149.00000 418.400000
11390 185 13260 1 149.00000 418.400000
11390 186 12621 1 149.00000 418.400000
11390 187 13739 1 149.00000 418.400000
11391 188 15604 1 149.00000 418.400000
11391 189 13643 1 149.00000 418.400000
11391 190 15297 1 149.00000 418.400000
11391 191 12086 1 149.00000 418.400000
11392 192 14056 1 149.00000 418.400000
11393 193 12979 1 149.00000 418.400000
11393 194 14661 1 149.00000 418.400000
11393 195 14501 1 149.00000 418.400000
11393 196 12473 1 149.00000 418.400000
11394 197 16258 1 149.00000 418.400000
11394 198 13939 1 149.00000 418.400000
11394 199 14212 1 149.00000 418.400000
11394 200 12395 1 149.00000 418.400000
11395 201 15192 1 149.00000 418.400000
11395 202 14989 1 149.00000 418.400000
11395 203 13268 1 149.00000 418.400000
12487 204 14989 1 149.00000 418.400000
16642 205 21798 1 149.00000 418.400000
11396 206 15816 1 149.00000 418.400000
11396 207 21798 1 149.00000 418.400000
11396 208 11773 1 149.00000 418.400000
11397 209 12973 1 149.00000 418.400000
11397 210 16425 1 149.00000 418.400000
11397 211 15642 1 149.00000 418.400000
11397 212 16249 1 149.00000 418.400000
13061 213 16411 1 149.00000 418.400000
11398 214 13061 1 149.00000 418.400000
11398 215 14178 1 149.00000 418.400000
11398 216 13208 1 149.00000 418.400000
11399 217 14192 1 149.00000 418.400000
11399 218 15422 1 149.00000 418.400000
11399 219 12292 1 149.00000 418.400000
11399 220 15590 1 149.00000 418.400000
11400 221 20838 1 149.00000 418.400000
11400 222 13044 1 149.00000 418.400000
11400 223 16262 1 149.00000 418.400000
11401 224 16404 1 149.00000 418.400000
11401 225 13806 1 149.00000 418.400000
11401 226 11777 1 149.00000 418.400000
11401 227 16285 1 149.00000 418.400000
11402 228 13395 1 149.00000 418.400000
11402 229 13985 1 149.00000 418.400000
11402 230 12015 1 149.00000 418.400000
11402 231 15956 1 149.00000 418.400000
11403 232 21780 1 149.00000 418.400000
11403 233 16044 1 149.00000 418.400000
11403 234 15110 1 149.00000 418.400000
14039 235 16166 1 149.00000 418.400000
14039 236 14477 1 149.00000 418.400000
11404 237 14039 1 149.00000 418.400000
13232 238 14039 1 149.00000 418.400000
11405 239 15587 1 149.00000 418.400000
11405 240 15733 1 149.00000 418.400000
11405 241 17636 1 149.00000 418.400000
11406 242 15903 1 149.00000 418.400000
11406 243 13429 1 149.00000 418.400000
11406 244 14811 1 149.00000 418.400000
11407 245 22275 1 149.00000 418.400000
11408 246 12872 1 149.00000 418.400000
11408 247 16364 1 149.00000 418.400000
11408 248 12916 1 149.00000 418.400000
11408 249 11489 1 149.00000 418.400000
11807 250 13601 1 149.00000 418.400000
11409 251 15070 1 149.00000 418.400000
11409 252 14209 1 149.00000 418.400000
11409 253 13601 1 149.00000 418.400000
11410 254 11903 1 149.00000 418.400000
11410 255 11889 1 149.00000 418.400000
11411 256 13975 1 149.00000 418.400000
11411 257 13778 1 149.00000 418.400000
11411 258 14749 1 149.00000 418.400000
11411 259 14038 1 149.00000 418.400000
11412 260 18894 1 149.00000 418.400000
11412 261 12106 1 149.00000 418.400000
11412 262 22167 1 149.00000 418.400000
11412 263 11426 1 149.00000 418.400000
11413 264 15895 1 149.00000 418.400000
11413 265 14420 1 149.00000 418.400000
11413 266 16470 1 149.00000 418.400000
11413 267 12289 1 149.00000 418.400000
11414 268 12833 1 149.00000 418.400000
11414 269 12955 1 149.00000 418.400000
11414 270 15534 1 149.00000 418.400000
11414 271 11455 1 149.00000 418.400000
11415 272 22194 1 149.00000 418.400000
11415 273 14071 1 149.00000 418.400000
11415 274 19782 1 149.00000 418.400000
11416 275 14706 1 149.00000 418.400000
11416 276 15539 1 149.00000 418.400000
11416 277 12177 1 149.00000 418.400000
11416 278 14418 1 149.00000 418.400000
11417 279 13414 1 149.00000 418.400000
11417 280 12002 1 149.00000 418.400000
11417 281 15249 1 149.00000 418.400000
11417 282 13910 1 149.00000 418.400000
11418 283 14809 1 149.00000 418.400000
11418 284 13064 1 149.00000 418.400000
11418 285 21462 1 149.00000 418.400000
11419 286 12307 1 149.00000 418.400000
11419 287 13055 1 149.00000 418.400000
11419 288 14502 1 149.00000 418.400000
11419 289 11428 1 149.00000 418.400000
11420 290 11894 1 149.00000 418.400000
11420 291 12238 1 149.00000 418.400000
11420 292 11512 1 149.00000 418.400000
11894 293 12776 1 149.00000 418.400000
11421 294 14569 1 149.00000 418.400000
11421 295 15915 1 149.00000 418.400000
11421 296 13483 1 149.00000 418.400000
13483 297 13805 1 149.00000 418.400000
11422 298 15334 1 149.00000 418.400000
11422 299 15456 1 149.00000 418.400000
11422 300 12101 1 149.00000 418.400000
11422 301 12084 1 149.00000 418.400000
11423 302 14412 1 149.00000 418.400000
11423 303 12162 1 149.00000 418.400000
11423 304 14236 1 149.00000 418.400000
11423 305 15535 1 149.00000 418.400000
11424 306 17132 1 149.00000 418.400000
11424 307 13076 1 149.00000 418.400000
11424 308 14539 1 149.00000 418.400000
11424 309 16060 1 149.00000 418.400000
11425 310 12573 1 149.00000 418.400000
11425 311 11706 1 149.00000 418.400000
11425 312 15260 1 149.00000 418.400000
11425 313 16434 1 149.00000 418.400000
11426 314 21822 1 149.00000 418.400000
11426 315 12854 1 149.00000 418.400000
11427 316 11670 1 149.00000 418.400000
11427 317 12800 1 149.00000 418.400000
11427 318 14162 1 149.00000 418.400000
11427 319 15700 1 149.00000 418.400000
15831 320 18858 1 149.00000 418.400000
11428 321 15246 1 149.00000 418.400000
11428 322 12086 1 149.00000 418.400000
11428 323 16122 1 149.00000 418.400000
11429 324 15021 1 149.00000 418.400000
11429 325 14191 1 149.00000 418.400000
11429 326 15377 1 149.00000 418.400000
11429 327 13889 1 149.00000 418.400000
11430 328 11790 1 149.00000 418.400000
11430 329 14671 1 149.00000 418.400000
11430 330 16446 1 149.00000 418.400000
11430 331 11609 1 149.00000 418.400000
11431 332 15612 1 149.00000 418.400000
11431 333 12236 1 149.00000 418.400000
11431 334 12121 1 149.00000 418.400000
11431 335 13913 1 149.00000 418.400000
12819 336 15398 1 149.00000 418.400000
15034 337 15398 1 149.00000 418.400000
11432 338 16359 1 149.00000 418.400000
11732 339 15398 1 149.00000 418.400000
11433 340 12686 1 149.00000 418.400000
11433 341 13893 1 149.00000 418.400000
11433 342 12778 1 149.00000 418.400000
11433 343 14536 1 149.00000 418.400000
11434 344 14723 1 149.00000 418.400000
11434 345 11783 1 149.00000 418.400000
11434 346 15042 1 149.00000 418.400000
11434 347 11498 1 149.00000 418.400000
12865 348 22170 1 149.00000 418.400000
14098 349 22170 1 149.00000 418.400000
11435 350 22170 1 149.00000 418.400000
11435 351 14357 1 149.00000 418.400000
11436 352 15841 1 149.00000 418.400000
11436 353 13663 1 149.00000 418.400000
11436 354 14423 1 149.00000 418.400000
11436 355 16252 1 149.00000 418.400000
11437 356 20130 1 149.00000 418.400000
11437 357 15597 1 149.00000 418.400000
11437 358 15060 1 149.00000 418.400000
11437 359 13971 1 149.00000 418.400000
11438 360 12766 1 149.00000 418.400000
11438 361 15818 1 149.00000 418.400000
11438 362 11551 1 149.00000 418.400000
11438 363 12515 1 149.00000 418.400000
11439 364 16368 1 149.00000 418.400000
11439 365 16144 1 149.00000 418.400000
11439 366 12728 1 149.00000 418.400000
11439 367 14345 1 149.00000 418.400000
13835 368 16176 1 149.00000 418.400000
11440 369 16176 1 149.00000 418.400000
12403 370 16176 1 149.00000 418.400000
13125 371 21861 1 149.00000 418.400000
11441 372 13125 1 149.00000 418.400000
13125 373 15459 1 149.00000 418.400000
11441 374 11809 1 149.00000 418.400000
11511 375 11868 1 149.00000 418.400000
11868 376 12754 1 149.00000 418.400000
11442 377 18810 1 149.00000 418.400000
11442 378 11868 1 149.00000 418.400000
11443 379 12666 1 149.00000 418.400000
11443 380 13620 1 149.00000 418.400000
11443 381 14132 1 149.00000 418.400000
11443 382 16360 1 149.00000 418.400000
11444 383 21576 1 149.00000 418.400000
11444 384 15289 1 149.00000 418.400000
11444 385 15782 1 149.00000 418.400000
11444 386 14397 1 149.00000 418.400000
11445 387 15403 1 149.00000 418.400000
11445 388 11519 1 149.00000 418.400000
11445 389 12963 1 149.00000 418.400000
11445 390 11680 1 149.00000 418.400000
11446 391 13366 1 149.00000 418.400000
11446 392 13109 1 149.00000 418.400000
11446 393 11896 1 149.00000 418.400000
11446 394 12599 1 149.00000 418.400000
11447 395 17468 1 149.00000 418.400000
11447 396 11860 1 149.00000 418.400000
11448 397 14206 1 149.00000 418.400000
11625 398 14379 1 149.00000 418.400000
11448 399 12612 1 149.00000 418.400000
11448 400 14379 1 149.00000 418.400000
11449 401 11528 1 149.00000 418.400000
11449 402 14119 1 149.00000 418.400000
11449 403 16450 1 149.00000 418.400000
11449 404 11564 1 149.00000 418.400000
11450 405 15588 1 149.00000 418.400000
11450 406 13043 1 149.00000 418.400000
13589 407 15241 1 149.00000 418.400000
11450 408 15241 1 149.00000 418.400000
11451 409 12461 1 149.00000 418.400000
11451 410 12994 1 149.00000 418.400000
11451 411 14140 1 149.00000 418.400000
11451 412 16197 1 149.00000 418.400000
11452 413 13118 1 149.00000 418.400000
11452 414 16469 1 149.00000 418.400000
11452 415 12600 1 149.00000 418.400000
11452 416 17944 1 149.00000 418.400000
11453 417 22107 1 149.00000 418.400000
11453 418 13239 1 149.00000 418.400000
11453 419 16328 1 149.00000 418.400000
11454 420 13207 1 149.00000 418.400000
11454 421 14047 1 149.00000 418.400000
11454 422 13951 1 149.00000 418.400000
11454 423 13156 1 149.00000 418.400000
11455 424 14257 1 149.00000 418.400000
11455 425 12755 1 149.00000 418.400000
11455 426 11489 1 149.00000 418.400000
11456 427 15781 1 149.00000 418.400000
11456 428 16341 1 149.00000 418.400000
11456 429 14168 1 149.00000 418.400000
11456 430 11571 1 149.00000 418.400000
11457 431 12741 1 149.00000 418.400000
11457 432 12815 1 149.00000 418.400000
11457 433 13432 1 149.00000 418.400000
11457 434 15682 1 149.00000 418.400000
12091 435 14321 1 149.00000 418.400000
11458 436 12091 1 149.00000 418.400000
11458 437 13096 1 149.00000 418.400000
11458 438 13931 1 149.00000 418.400000
11459 439 13460 1 149.00000 418.400000
11459 440 19110 1 149.00000 418.400000
11460 441 18112 1 149.00000 418.400000
11460 442 17202 1 149.00000 418.400000
11460 443 15196 1 149.00000 418.400000
11460 444 15689 1 149.00000 418.400000
11461 445 11516 1 149.00000 418.400000
11461 446 12739 1 149.00000 418.400000
11461 447 14034 1 149.00000 418.400000
11461 448 14710 1 149.00000 418.400000
11462 449 13111 1 149.00000 418.400000
11462 450 11938 1 149.00000 418.400000
11463 451 13496 1 149.00000 418.400000
11463 452 15830 1 149.00000 418.400000
11463 453 14320 1 149.00000 418.400000
11463 454 12834 1 149.00000 418.400000
11464 455 14398 1 149.00000 418.400000
11464 456 11902 1 149.00000 418.400000
11464 457 12399 1 149.00000 418.400000
11464 458 19410 1 149.00000 418.400000
11465 459 16271 1 149.00000 418.400000
11465 460 19842 1 149.00000 418.400000
11466 461 15470 1 149.00000 418.400000
11466 462 13349 1 149.00000 418.400000
11466 463 14823 1 149.00000 418.400000
11466 464 15481 1 149.00000 418.400000
11467 465 16395 1 149.00000 418.400000
11467 466 16194 1 149.00000 418.400000
11467 467 13878 1 149.00000 418.400000
11467 468 13002 1 149.00000 418.400000
11468 469 14980 1 149.00000 418.400000
11468 470 12106 1 149.00000 418.400000
11468 471 15509 1 149.00000 418.400000
11468 472 14408 1 149.00000 418.400000
11469 473 13108 1 149.00000 418.400000
11469 474 14919 1 149.00000 418.400000
11470 475 13867 1 149.00000 418.400000
11470 476 14748 1 149.00000 418.400000
11470 477 14841 1 149.00000 418.400000
11470 478 13327 1 149.00000 418.400000
11471 479 15458 1 149.00000 418.400000
13976 480 19518 1 149.00000 418.400000
16250 481 21849 1 149.00000 418.400000
11471 482 21849 1 149.00000 418.400000
11472 483 12941 1 149.00000 418.400000
11472 484 12869 1 149.00000 418.400000
11472 485 14544 1 149.00000 418.400000
11472 486 14144 1 149.00000 418.400000
11473 487 11987 1 149.00000 418.400000
11473 488 11590 1 149.00000 418.400000
11473 489 16110 1 149.00000 418.400000
11473 490 13226 1 149.00000 418.400000
11474 491 21030 1 149.00000 418.400000
11474 492 13984 1 149.00000 418.400000
11474 493 16469 1 149.00000 418.400000
11474 494 15763 1 149.00000 418.400000
13670 495 16080 1 149.00000 418.400000
11475 496 15540 1 149.00000 418.400000
11475 497 13670 1 149.00000 418.400000
11475 498 15349 1 149.00000 418.400000
14819 499 21066 1 149.00000 418.400000
11476 500 14826 1 149.00000 418.400000
11476 501 11883 1 149.00000 418.400000
11476 502 15104 1 149.00000 418.400000
11476 503 11485 1 149.00000 418.400000
11477 504 15175 1 149.00000 418.400000
11477 505 13219 1 149.00000 418.400000
11477 506 14624 1 149.00000 418.400000
11477 507 12441 1 149.00000 418.400000
11478 508 13473 1 149.00000 418.400000
11478 509 13609 1 149.00000 418.400000
11478 510 13398 1 149.00000 418.400000
11478 511 15494 1 149.00000 418.400000
11479 512 21138 1 149.00000 418.400000
11479 513 12255 1 149.00000 418.400000
11479 514 17902 1 149.00000 418.400000
11480 515 13163 1 149.00000 418.400000
11480 516 15913 1 149.00000 418.400000
11480 517 14791 1 149.00000 418.400000
11481 518 22206 1 149.00000 418.400000
11481 519 19734 1 149.00000 418.400000
11481 520 16346 1 149.00000 418.400000
11482 521 20766 1 149.00000 418.400000
11482 522 15299 1 149.00000 418.400000
19830 523 20766 1 149.00000 418.400000
11482 524 12259 1 149.00000 418.400000
11483 525 16237 1 149.00000 418.400000
11483 526 16443 1 149.00000 418.400000
11483 527 16293 1 149.00000 418.400000
11483 528 11915 1 149.00000 418.400000
11484 529 12584 1 149.00000 418.400000
11484 530 15507 1 149.00000 418.400000
11484 531 11660 1 149.00000 418.400000
11484 532 15644 1 149.00000 418.400000
11485 533 12167 1 149.00000 418.400000
11485 534 15343 1 149.00000 418.400000
11485 535 12986 1 149.00000 418.400000
11486 536 15730 1 149.00000 418.400000
11486 537 12406 1 149.00000 418.400000
11486 538 15824 1 149.00000 418.400000
11487 539 13960 1 149.00000 418.400000
11487 540 15641 1 149.00000 418.400000
11487 541 13548 1 149.00000 418.400000
11487 542 12875 1 149.00000 418.400000
12319 543 12621 1 149.00000 418.400000
12621 544 16215 1 149.00000 418.400000
11488 545 12621 1 149.00000 418.400000
11489 546 12891 1 149.00000 418.400000
11489 547 12482 1 149.00000 418.400000
11490 548 15981 1 149.00000 418.400000
11490 549 14285 1 149.00000 418.400000
11490 550 15526 1 149.00000 418.400000
11490 551 15784 1 149.00000 418.400000
11491 552 13227 1 149.00000 418.400000
11491 553 11648 1 149.00000 418.400000
11491 554 15705 1 149.00000 418.400000
11648 555 13040 1 149.00000 418.400000
11492 556 16144 1 149.00000 418.400000
11492 557 13443 1 149.00000 418.400000
11492 558 13916 1 149.00000 418.400000
11493 559 12522 1 149.00000 418.400000
11493 560 11808 1 149.00000 418.400000
11493 561 12808 1 149.00000 418.400000
11494 562 16426 1 149.00000 418.400000
11494 563 12408 1 149.00000 418.400000
11494 564 15019 1 149.00000 418.400000
11494 565 14049 1 149.00000 418.400000
11495 566 12126 1 149.00000 418.400000
11495 567 14046 1 149.00000 418.400000
11495 568 14949 1 149.00000 418.400000
11495 569 13202 1 149.00000 418.400000
11496 570 11631 1 149.00000 418.400000
11496 571 12552 1 149.00000 418.400000
11496 572 16301 1 149.00000 418.400000
11496 573 13392 1 149.00000 418.400000
11497 574 14718 1 149.00000 418.400000
11497 575 15382 1 149.00000 418.400000
11497 576 13282 1 149.00000 418.400000
11497 577 12431 1 149.00000 418.400000
14566 578 18474 1 149.00000 418.400000
12149 579 18474 1 149.00000 418.400000
11498 580 12120 1 149.00000 418.400000
11498 581 11966 1 149.00000 418.400000
11498 582 13598 1 149.00000 418.400000
11499 583 14627 1 149.00000 418.400000
11499 584 13316 1 149.00000 418.400000
11500 585 15999 1 149.00000 418.400000
11500 586 15385 1 149.00000 418.400000
11500 587 16364 1 149.00000 418.400000
11500 588 12256 1 149.00000 418.400000
11501 589 14575 1 149.00000 418.400000
11501 590 16227 1 149.00000 418.400000
11501 591 12378 1 149.00000 418.400000
11501 592 13095 1 149.00000 418.400000
11502 593 12200 1 149.00000 418.400000
11502 594 14591 1 149.00000 418.400000
11502 595 15554 1 149.00000 418.400000
11502 596 14752 1 149.00000 418.400000
11503 597 14381 1 149.00000 418.400000
11503 598 17104 1 149.00000 418.400000
11503 599 11556 1 149.00000 418.400000
11503 600 13222 1 149.00000 418.400000
11504 601 16740 1 149.00000 418.400000
11504 602 15401 1 149.00000 418.400000
11504 603 17426 1 149.00000 418.400000
11505 604 14429 1 149.00000 418.400000
11505 605 14647 1 149.00000 418.400000
11505 606 11506 1 149.00000 418.400000
11505 607 16037 1 149.00000 418.400000
11506 608 12823 1 149.00000 418.400000
11506 609 11637 1 149.00000 418.400000
11506 610 12724 1 149.00000 418.400000
11507 611 13600 1 149.00000 418.400000
11507 612 12312 1 149.00000 418.400000
11507 613 15663 1 149.00000 418.400000
11507 614 16502 1 149.00000 418.400000
11508 615 14884 1 149.00000 418.400000
11508 616 14399 1 149.00000 418.400000
11508 617 15201 1 149.00000 418.400000
11508 618 14148 1 149.00000 418.400000
11509 619 14855 1 149.00000 418.400000
11509 620 22029 1 149.00000 418.400000
11509 621 14540 1 149.00000 418.400000
11510 622 15479 1 149.00000 418.400000
11510 623 12638 1 149.00000 418.400000
11510 624 13376 1 149.00000 418.400000
11510 625 13781 1 149.00000 418.400000
11511 626 15095 1 149.00000 418.400000
11511 627 15387 1 149.00000 418.400000
11511 628 12029 1 149.00000 418.400000
11512 629 11519 1 149.00000 418.400000
11512 630 13788 1 149.00000 418.400000
11512 631 15611 1 149.00000 418.400000
11513 632 15685 1 149.00000 418.400000
11513 633 13964 1 149.00000 418.400000
11513 634 12423 1 149.00000 418.400000
11513 635 12097 1 149.00000 418.400000
11514 636 15359 1 149.00000 418.400000
11514 637 12165 1 149.00000 418.400000
11514 638 14257 1 149.00000 418.400000
11514 639 15124 1 149.00000 418.400000
11515 640 11828 1 149.00000 418.400000
11515 641 12321 1 149.00000 418.400000
11515 642 14061 1 149.00000 418.400000
11515 643 15103 1 149.00000 418.400000
11516 644 12311 1 149.00000 418.400000
11516 645 16518 1 149.00000 418.400000
11516 646 11797 1 149.00000 418.400000
11517 647 12749 1 149.00000 418.400000
11517 648 14576 1 149.00000 418.400000
11517 649 14121 1 149.00000 418.400000
11517 650 15530 1 149.00000 418.400000
11518 651 13593 1 149.00000 418.400000
11518 652 18420 1 149.00000 418.400000
11518 653 14146 1 149.00000 418.400000
11518 654 19998 1 149.00000 418.400000
11519 655 12131 1 149.00000 418.400000
11519 656 11928 1 149.00000 418.400000
11520 657 13707 1 149.00000 418.400000
11520 658 12519 1 149.00000 418.400000
11520 659 13291 1 149.00000 418.400000
12519 660 16509 1 149.00000 418.400000
11521 661 15989 1 149.00000 418.400000
11521 662 16433 1 149.00000 418.400000
14491 663 16433 1 149.00000 418.400000
11521 664 12547 1 149.00000 418.400000
11522 665 15698 1 149.00000 418.400000
14469 666 15698 1 149.00000 418.400000
11522 667 13221 1 149.00000 418.400000
11522 668 11694 1 149.00000 418.400000
11523 669 12320 1 149.00000 418.400000
11523 670 14950 1 149.00000 418.400000
11524 671 14082 1 149.00000 418.400000
11524 672 14978 1 149.00000 418.400000
12348 673 14082 1 149.00000 418.400000
11524 674 12815 1 149.00000 418.400000
12543 675 18486 1 149.00000 418.400000
15250 676 18486 1 149.00000 418.400000
11874 677 18486 1 149.00000 418.400000
11525 678 11572 1 149.00000 418.400000
11525 679 13886 1 149.00000 418.400000
11525 680 16302 1 149.00000 418.400000
11572 681 15737 1 149.00000 418.400000
11526 682 12872 1 149.00000 418.400000
14041 683 15534 1 149.00000 418.400000
11526 684 13674 1 149.00000 418.400000
11526 685 14041 1 149.00000 418.400000
11527 686 13175 1 149.00000 418.400000
11527 687 11679 1 149.00000 418.400000
11527 688 15725 1 149.00000 418.400000
11527 689 15010 1 149.00000 418.400000
11528 690 12020 1 149.00000 418.400000
11819 691 12979 1 149.00000 418.400000
11528 692 11819 1 149.00000 418.400000
11529 693 13664 1 149.00000 418.400000
11529 694 13935 1 149.00000 418.400000
11529 695 12050 1 149.00000 418.400000
11529 696 18846 1 149.00000 418.400000
11530 697 13675 1 149.00000 418.400000
11530 698 13472 1 149.00000 418.400000
11530 699 12087 1 149.00000 418.400000
11530 700 12774 1 149.00000 418.400000
11531 701 12949 1 149.00000 418.400000
11531 702 14273 1 149.00000 418.400000
11531 703 14516 1 149.00000 418.400000
11532 704 12506 1 149.00000 418.400000
11532 705 14057 1 149.00000 418.400000
11532 706 14131 1 149.00000 418.400000
11532 707 13408 1 149.00000 418.400000
11533 708 22236 1 149.00000 418.400000
11533 709 12728 1 149.00000 418.400000
11533 710 14646 1 149.00000 418.400000
11533 711 13342 1 149.00000 418.400000
11534 712 16496 1 149.00000 418.400000
11534 713 14517 1 149.00000 418.400000
11534 714 14623 1 149.00000 418.400000
14623 715 15044 1 149.00000 418.400000
13330 716 15401 1 149.00000 418.400000
11535 717 15401 1 149.00000 418.400000
11535 718 19482 1 149.00000 418.400000
11536 719 15075 1 149.00000 418.400000
11536 720 12294 1 149.00000 418.400000
11536 721 22254 1 149.00000 418.400000
11537 722 14304 1 149.00000 418.400000
11577 723 13990 1 149.00000 418.400000
13990 724 14304 1 149.00000 418.400000
11538 725 13676 1 149.00000 418.400000
11538 726 13562 1 149.00000 418.400000
11538 727 12406 1 149.00000 418.400000
11538 728 12956 1 149.00000 418.400000
11539 729 12282 1 149.00000 418.400000
11539 730 15940 1 149.00000 418.400000
11539 731 16165 1 149.00000 418.400000
11539 732 12700 1 149.00000 418.400000
11540 733 15527 1 149.00000 418.400000
11540 734 12080 1 149.00000 418.400000
11540 735 16192 1 149.00000 418.400000
11540 736 14752 1 149.00000 418.400000
11541 737 15610 1 149.00000 418.400000
11541 738 12396 1 149.00000 418.400000
11541 739 12391 1 149.00000 418.400000
11541 740 12526 1 149.00000 418.400000
11542 741 18726 1 149.00000 418.400000
11542 742 20370 1 149.00000 418.400000
11542 743 14759 1 149.00000 418.400000
11542 744 13539 1 149.00000 418.400000
11543 745 12303 1 149.00000 418.400000
11543 746 13581 1 149.00000 418.400000
11543 747 14116 1 149.00000 418.400000
11543 748 14843 1 149.00000 418.400000
11544 749 15351 1 149.00000 418.400000
11544 750 14724 1 149.00000 418.400000
11544 751 15230 1 149.00000 418.400000
11544 752 13518 1 149.00000 418.400000
11545 753 12617 1 149.00000 418.400000
11545 754 12601 1 149.00000 418.400000
11545 755 12306 1 149.00000 418.400000
11545 756 12049 1 149.00000 418.400000
11546 757 12540 1 149.00000 418.400000
11546 758 11647 1 149.00000 418.400000
11546 759 12923 1 149.00000 418.400000
11526 760 11546 1 149.00000 418.400000
11547 761 13050 1 149.00000 418.400000
11547 762 13017 1 149.00000 418.400000
11547 763 14951 1 149.00000 418.400000
11547 764 15688 1 149.00000 418.400000
11548 765 13876 1 149.00000 418.400000
11548 766 14467 1 149.00000 418.400000
11548 767 13974 1 149.00000 418.400000
11548 768 14656 1 149.00000 418.400000
11549 769 12050 1 149.00000 418.400000
11432 770 11549 1 149.00000 418.400000
11549 771 14103 1 149.00000 418.400000
11549 772 14637 1 149.00000 418.400000
11550 773 13550 1 149.00000 418.400000
11550 774 15229 1 149.00000 418.400000
11550 775 16670 1 149.00000 418.400000
11551 776 15911 1 149.00000 418.400000
11551 777 13795 1 149.00000 418.400000
13795 778 14380 1 149.00000 418.400000
11552 779 17874 1 149.00000 418.400000
11552 780 13804 1 149.00000 418.400000
11552 781 12477 1 149.00000 418.400000
11552 782 16314 1 149.00000 418.400000
11553 783 21831 1 149.00000 418.400000
11553 784 12280 1 149.00000 418.400000
11553 785 22323 1 149.00000 418.400000
11554 786 14360 1 149.00000 418.400000
11554 787 13223 1 149.00000 418.400000
11554 788 14242 1 149.00000 418.400000
11554 789 15967 1 149.00000 418.400000
11555 790 16256 1 149.00000 418.400000
11555 791 16076 1 149.00000 418.400000
11555 792 22083 1 149.00000 418.400000
14434 793 21987 1 149.00000 418.400000
11556 794 15360 1 149.00000 418.400000
11556 795 15878 1 149.00000 418.400000
11556 796 12587 1 149.00000 418.400000
11557 797 12665 1 149.00000 418.400000
11557 798 14068 1 149.00000 418.400000
11557 799 21699 1 149.00000 418.400000
11558 800 13030 1 149.00000 418.400000
11558 801 12242 1 149.00000 418.400000
11559 802 15633 1 149.00000 418.400000
11559 803 15197 1 149.00000 418.400000
11559 804 12821 1 149.00000 418.400000
11559 805 13632 1 149.00000 418.400000
11560 806 11900 1 149.00000 418.400000
11560 807 16115 1 149.00000 418.400000
11560 808 13178 1 149.00000 418.400000
11900 809 14002 1 149.00000 418.400000
14760 810 15748 1 149.00000 418.400000
11806 811 15748 1 149.00000 418.400000
15748 812 16161 1 149.00000 418.400000
11561 813 15748 1 149.00000 418.400000
11562 814 15390 1 149.00000 418.400000
11562 815 13296 1 149.00000 418.400000
11562 816 13864 1 149.00000 418.400000
11562 817 16271 1 149.00000 418.400000
11563 818 13165 1 149.00000 418.400000
11563 819 16062 1 149.00000 418.400000
11563 820 14797 1 149.00000 418.400000
11563 821 15167 1 149.00000 418.400000
11564 822 12336 1 149.00000 418.400000
11564 823 13501 1 149.00000 418.400000
11564 824 16355 1 149.00000 418.400000
11565 825 16323 1 149.00000 418.400000
15873 826 16323 1 149.00000 418.400000
11565 827 15352 1 149.00000 418.400000
11565 828 12067 1 149.00000 418.400000
11566 829 15022 1 149.00000 418.400000
11566 830 14216 1 149.00000 418.400000
11566 831 14459 1 149.00000 418.400000
11566 832 14106 1 149.00000 418.400000
11567 833 16125 1 149.00000 418.400000
11567 834 16077 1 149.00000 418.400000
11567 835 15641 1 149.00000 418.400000
11567 836 15856 1 149.00000 418.400000
11568 837 19758 1 149.00000 418.400000
11568 838 13306 1 149.00000 418.400000
11568 839 15700 1 149.00000 418.400000
11569 840 19494 1 149.00000 418.400000
11570 841 12693 1 149.00000 418.400000
11570 842 16166 1 149.00000 418.400000
11561 843 11570 1 149.00000 418.400000
11570 844 14678 1 149.00000 418.400000
18834 845 21777 1 149.00000 418.400000
11571 846 14667 1 149.00000 418.400000
11571 847 12028 1 149.00000 418.400000
11571 848 12812 1 149.00000 418.400000
11572 849 14272 1 149.00000 418.400000
11525 850 13119 1 149.00000 418.400000
11572 851 15291 1 149.00000 418.400000
11573 852 15936 1 149.00000 418.400000
11573 853 22098 1 149.00000 418.400000
11573 854 11907 1 149.00000 418.400000
11573 855 12317 1 149.00000 418.400000
11574 856 11628 1 149.00000 418.400000
11574 857 14436 1 149.00000 418.400000
11574 858 12846 1 149.00000 418.400000
11574 859 15762 1 149.00000 418.400000
11575 860 14787 1 149.00000 418.400000
11575 861 12817 1 149.00000 418.400000
11575 862 16243 1 149.00000 418.400000
11575 863 16292 1 149.00000 418.400000
11576 864 20550 1 149.00000 418.400000
11576 865 11607 1 149.00000 418.400000
11607 866 15078 1 149.00000 418.400000
11576 867 22338 1 149.00000 418.400000
11577 868 21450 1 149.00000 418.400000
11577 869 11622 1 149.00000 418.400000
11577 870 13229 1 149.00000 418.400000
11578 871 12846 1 149.00000 418.400000
11578 872 13630 1 149.00000 418.400000
11578 873 15227 1 149.00000 418.400000
11578 874 15655 1 149.00000 418.400000
11579 875 12047 1 149.00000 418.400000
11579 876 12130 1 149.00000 418.400000
11579 877 15484 1 149.00000 418.400000
11579 878 13121 1 149.00000 418.400000
11580 879 15979 1 149.00000 418.400000
11580 880 15281 1 149.00000 418.400000
11580 881 14511 1 149.00000 418.400000
11580 882 12418 1 149.00000 418.400000
11581 883 13444 1 149.00000 418.400000
11581 884 15358 1 149.00000 418.400000
11581 885 15206 1 149.00000 418.400000
11581 886 14463 1 149.00000 418.400000
11582 887 13999 1 149.00000 418.400000
11582 888 14364 1 149.00000 418.400000
11582 889 19830 1 149.00000 418.400000
11583 890 14531 1 149.00000 418.400000
11583 891 13597 1 149.00000 418.400000
11583 892 16099 1 149.00000 418.400000
11583 893 12579 1 149.00000 418.400000
11584 894 11673 1 149.00000 418.400000
12031 895 12439 1 149.00000 418.400000
11673 896 22101 1 149.00000 418.400000
12439 897 14837 1 149.00000 418.400000
11585 898 14032 1 149.00000 418.400000
11585 899 13731 1 149.00000 418.400000
11585 900 12188 1 149.00000 418.400000
11585 901 15954 1 149.00000 418.400000
12146 902 12876 1 149.00000 418.400000
12290 903 12876 1 149.00000 418.400000
11586 904 12876 1 149.00000 418.400000
12876 905 14645 1 149.00000 418.400000
12120 906 14395 1 149.00000 418.400000
11587 907 15429 1 149.00000 418.400000
11587 908 15284 1 149.00000 418.400000
11587 909 14395 1 149.00000 418.400000
11588 910 15388 1 149.00000 418.400000
11588 911 12083 1 149.00000 418.400000
11588 912 16140 1 149.00000 418.400000
11588 913 16035 1 149.00000 418.400000
11589 914 15549 1 149.00000 418.400000
11589 915 13270 1 149.00000 418.400000
11589 916 15295 1 149.00000 418.400000
11589 917 14605 1 149.00000 418.400000
11590 918 12163 1 149.00000 418.400000
11590 919 15994 1 149.00000 418.400000
11590 920 16330 1 149.00000 418.400000
11591 921 15278 1 149.00000 418.400000
11591 922 13949 1 149.00000 418.400000
11591 923 12969 1 149.00000 418.400000
11591 924 11866 1 149.00000 418.400000
11592 925 11601 1 149.00000 418.400000
11592 926 13832 1 149.00000 418.400000
11592 927 11924 1 149.00000 418.400000
11592 928 16201 1 149.00000 418.400000
11593 929 15686 1 149.00000 418.400000
11593 930 15041 1 149.00000 418.400000
11593 931 13696 1 149.00000 418.400000
11593 932 15426 1 149.00000 418.400000
11594 933 13731 1 149.00000 418.400000
11594 934 16267 1 149.00000 418.400000
11594 935 13319 1 149.00000 418.400000
11594 936 14754 1 149.00000 418.400000
11595 937 15592 1 149.00000 418.400000
11595 938 16060 1 149.00000 418.400000
11595 939 13106 1 149.00000 418.400000
11595 940 20190 1 149.00000 418.400000
11596 941 11655 1 149.00000 418.400000
11596 942 15761 1 149.00000 418.400000
11596 943 16712 1 149.00000 418.400000
11596 944 14586 1 149.00000 418.400000
11597 945 15440 1 149.00000 418.400000
11597 946 11778 1 149.00000 418.400000
11597 947 16365 1 149.00000 418.400000
11597 948 16517 1 149.00000 418.400000
11692 949 14741 1 149.00000 418.400000
11598 950 12342 1 149.00000 418.400000
11598 951 14741 1 149.00000 418.400000
11598 952 13641 1 149.00000 418.400000
11599 953 11616 1 149.00000 418.400000
11599 954 13490 1 149.00000 418.400000
11599 955 12682 1 149.00000 418.400000
11599 956 15295 1 149.00000 418.400000
11600 957 11668 1 149.00000 418.400000
11600 958 12362 1 149.00000 418.400000
11668 959 13425 1 149.00000 418.400000
12362 960 12710 1 149.00000 418.400000
11601 961 15469 1 149.00000 418.400000
11601 962 14581 1 149.00000 418.400000
11601 963 14478 1 149.00000 418.400000
16061 964 18498 1 149.00000 418.400000
13245 965 18498 1 149.00000 418.400000
11602 966 12846 1 149.00000 418.400000
11602 967 14138 1 149.00000 418.400000
11602 968 14609 1 149.00000 418.400000
11602 969 16237 1 149.00000 418.400000
11603 970 15740 1 149.00000 418.400000
11603 971 11899 1 149.00000 418.400000
11603 972 12238 1 149.00000 418.400000
11603 973 11813 1 149.00000 418.400000
11604 974 14644 1 149.00000 418.400000
11604 975 14035 1 149.00000 418.400000
11604 976 15848 1 149.00000 418.400000
11604 977 14634 1 149.00000 418.400000
11605 978 16242 1 149.00000 418.400000
11605 979 15232 1 149.00000 418.400000
11605 980 20514 1 149.00000 418.400000
11606 981 14853 1 149.00000 418.400000
12068 982 14853 1 149.00000 418.400000
11606 983 12225 1 149.00000 418.400000
11606 984 11731 1 149.00000 418.400000
11919 985 18322 1 149.00000 418.400000
11576 986 19458 1 149.00000 418.400000
11607 987 12791 1 149.00000 418.400000
11607 988 15623 1 149.00000 418.400000
11608 989 16318 1 149.00000 418.400000
11608 990 16505 1 149.00000 418.400000
11608 991 15254 1 149.00000 418.400000
11608 992 11647 1 149.00000 418.400000
11609 993 13332 1 149.00000 418.400000
11609 994 16337 1 149.00000 418.400000
11609 995 11790 1 149.00000 418.400000
11610 996 16446 1 149.00000 418.400000
11610 997 16299 1 149.00000 418.400000
11610 998 15976 1 149.00000 418.400000
11610 999 12544 1 149.00000 418.400000
11611 1000 13196 1 149.00000 418.400000
11611 1001 16386 1 149.00000 418.400000
11611 1002 16072 1 149.00000 418.400000
11611 1003 15297 1 149.00000 418.400000
11612 1004 12347 1 149.00000 418.400000
11612 1005 12047 1 149.00000 418.400000
11612 1006 14838 1 149.00000 418.400000
11612 1007 14194 1 149.00000 418.400000
11613 1008 11646 1 149.00000 418.400000
11613 1009 15240 1 149.00000 418.400000
14913 1010 15251 1 149.00000 418.400000
11613 1011 14913 1 149.00000 418.400000
11614 1012 14581 1 149.00000 418.400000
11614 1013 15601 1 149.00000 418.400000
11614 1014 16201 1 149.00000 418.400000
11614 1015 12567 1 149.00000 418.400000
11615 1016 11909 1 149.00000 418.400000
11615 1017 15853 1 149.00000 418.400000
11615 1018 13995 1 149.00000 418.400000
11615 1019 12430 1 149.00000 418.400000
11616 1020 13194 1 149.00000 418.400000
11616 1021 21996 1 149.00000 418.400000
11616 1022 18882 1 149.00000 418.400000
11617 1023 15654 1 149.00000 418.400000
11617 1024 16043 1 149.00000 418.400000
11617 1025 13173 1 149.00000 418.400000
11617 1026 16197 1 149.00000 418.400000
11618 1027 12098 1 149.00000 418.400000
11618 1028 12202 1 149.00000 418.400000
11618 1029 15430 1 149.00000 418.400000
11586 1030 11619 1 149.00000 418.400000
11619 1031 15754 1 149.00000 418.400000
11619 1032 14629 1 149.00000 418.400000
11619 1033 15300 1 149.00000 418.400000
11620 1034 17118 1 149.00000 418.400000
11620 1035 14128 1 149.00000 418.400000
11812 1036 15203 1 149.00000 418.400000
15203 1037 22146 1 149.00000 418.400000
13080 1038 15203 1 149.00000 418.400000
11621 1039 15203 1 149.00000 418.400000
11622 1040 15355 1 149.00000 418.400000
11622 1041 15127 1 149.00000 418.400000
11622 1042 11623 1 149.00000 418.400000
11623 1043 14682 1 149.00000 418.400000
11623 1044 18858 1 149.00000 418.400000
11624 1045 15221 1 149.00000 418.400000
11624 1046 15737 1 149.00000 418.400000
11624 1047 11697 1 149.00000 418.400000
11624 1048 15291 1 149.00000 418.400000
11625 1049 15074 1 149.00000 418.400000
11625 1050 15612 1 149.00000 418.400000
11625 1051 14600 1 149.00000 418.400000
11626 1052 11774 1 149.00000 418.400000
11626 1053 15522 1 149.00000 418.400000
11626 1054 15234 1 149.00000 418.400000
11626 1055 12568 1 149.00000 418.400000
11627 1056 11830 1 149.00000 418.400000
11627 1057 15861 1 149.00000 418.400000
11627 1058 14358 1 149.00000 418.400000
11627 1059 15277 1 149.00000 418.400000
11628 1060 15661 1 149.00000 418.400000
11628 1061 15406 1 149.00000 418.400000
12892 1062 15661 1 149.00000 418.400000
13226 1063 13442 1 149.00000 418.400000
11629 1064 13226 1 149.00000 418.400000
13226 1065 14776 1 149.00000 418.400000
11630 1066 13712 1 149.00000 418.400000
11630 1067 14546 1 149.00000 418.400000
11630 1068 14572 1 149.00000 418.400000
11630 1069 12363 1 149.00000 418.400000
11631 1070 15833 1 149.00000 418.400000
11631 1071 16405 1 149.00000 418.400000
11631 1072 14969 1 149.00000 418.400000
11632 1073 11812 1 149.00000 418.400000
11632 1074 16513 1 149.00000 418.400000
11632 1075 21975 1 149.00000 418.400000
11632 1076 14715 1 149.00000 418.400000
11633 1077 13568 1 149.00000 418.400000
11633 1078 13848 1 149.00000 418.400000
11633 1079 16371 1 149.00000 418.400000
11633 1080 15162 1 149.00000 418.400000
11634 1081 15689 1 149.00000 418.400000
11634 1082 12641 1 149.00000 418.400000
11634 1083 16444 1 149.00000 418.400000
11634 1084 14448 1 149.00000 418.400000
11635 1085 13391 1 149.00000 418.400000
11635 1086 12469 1 149.00000 418.400000
11635 1087 14045 1 149.00000 418.400000
11635 1088 13057 1 149.00000 418.400000
11636 1089 14083 1 149.00000 418.400000
11636 1090 14703 1 149.00000 418.400000
11636 1091 13112 1 149.00000 418.400000
11636 1092 16120 1 149.00000 418.400000
11637 1093 13089 1 149.00000 418.400000
11637 1094 14198 1 149.00000 418.400000
11637 1095 16179 1 149.00000 418.400000
11638 1096 14217 1 149.00000 418.400000
11638 1097 13209 1 149.00000 418.400000
11638 1098 14274 1 149.00000 418.400000
11638 1099 12724 1 149.00000 418.400000
11639 1100 13068 1 149.00000 418.400000
11639 1101 13104 1 149.00000 418.400000
11639 1102 15073 1 149.00000 418.400000
11639 1103 16370 1 149.00000 418.400000
11640 1104 15884 1 149.00000 418.400000
11640 1105 14841 1 149.00000 418.400000
11640 1106 16480 1 149.00000 418.400000
11641 1107 12163 1 149.00000 418.400000
12163 1108 16308 1 149.00000 418.400000
12163 1109 13272 1 149.00000 418.400000
11642 1110 21474 1 149.00000 418.400000
11642 1111 13409 1 149.00000 418.400000
11642 1112 22266 1 149.00000 418.400000
11643 1113 16279 1 149.00000 418.400000
14457 1114 16279 1 149.00000 418.400000
11643 1115 15282 1 149.00000 418.400000
11643 1116 11771 1 149.00000 418.400000
11644 1117 13745 1 149.00000 418.400000
11644 1118 12323 1 149.00000 418.400000
11644 1119 15538 1 149.00000 418.400000
11644 1120 22275 1 149.00000 418.400000
11645 1121 13113 1 149.00000 418.400000
11645 1122 15634 1 149.00000 418.400000
11645 1123 19362 1 149.00000 418.400000
11645 1124 15153 1 149.00000 418.400000
11646 1125 15900 1 149.00000 418.400000
11646 1126 15443 1 149.00000 418.400000
11646 1127 16164 1 149.00000 418.400000
11647 1128 11969 1 149.00000 418.400000
11647 1129 12864 1 149.00000 418.400000
11648 1130 15434 1 149.00000 418.400000
11491 1131 15049 1 149.00000 418.400000
11648 1132 15093 1 149.00000 418.400000
11649 1133 13886 1 149.00000 418.400000
11649 1134 12360 1 149.00000 418.400000
11649 1135 13932 1 149.00000 418.400000
11649 1136 13845 1 149.00000 418.400000
15747 1137 21660 1 149.00000 418.400000
11650 1138 15303 1 149.00000 418.400000
11650 1139 12748 1 149.00000 418.400000
11650 1140 15364 1 149.00000 418.400000
11650 1141 11834 1 149.00000 418.400000
11651 1142 12109 1 149.00000 418.400000
11651 1143 11666 1 149.00000 418.400000
11651 1144 13208 1 149.00000 418.400000
11651 1145 13459 1 149.00000 418.400000
11652 1146 16322 1 149.00000 418.400000
11652 1147 12847 1 149.00000 418.400000
11652 1148 20682 1 149.00000 418.400000
11652 1149 15814 1 149.00000 418.400000
11653 1150 13540 1 149.00000 418.400000
13540 1151 13998 1 149.00000 418.400000
11653 1152 12360 1 149.00000 418.400000
11654 1153 16429 1 149.00000 418.400000
11654 1154 20622 1 149.00000 418.400000
11654 1155 14696 1 149.00000 418.400000
11654 1156 14928 1 149.00000 418.400000
11655 1157 16029 1 149.00000 418.400000
11655 1158 11957 1 149.00000 418.400000
11655 1159 14810 1 149.00000 418.400000
13046 1160 15572 1 149.00000 418.400000
11656 1161 12049 1 149.00000 418.400000
11656 1162 13046 1 149.00000 418.400000
13046 1163 13368 1 149.00000 418.400000
11657 1164 14245 1 149.00000 418.400000
11657 1165 16224 1 149.00000 418.400000
11657 1166 13570 1 149.00000 418.400000
11657 1167 13927 1 149.00000 418.400000
11658 1168 16328 1 149.00000 418.400000
11658 1169 14993 1 149.00000 418.400000
11658 1170 12442 1 149.00000 418.400000
11658 1171 21426 1 149.00000 418.400000
11659 1172 13888 1 149.00000 418.400000
11659 1173 14859 1 149.00000 418.400000
11659 1174 12820 1 149.00000 418.400000
11659 1175 14083 1 149.00000 418.400000
11660 1176 15825 1 149.00000 418.400000
11660 1177 14309 1 149.00000 418.400000
11660 1178 15840 1 149.00000 418.400000
11661 1179 15951 1 149.00000 418.400000
11661 1180 17790 1 149.00000 418.400000
11662 1181 15140 1 149.00000 418.400000
11662 1182 14310 1 149.00000 418.400000
11662 1183 15945 1 149.00000 418.400000
11662 1184 15361 1 149.00000 418.400000
11663 1185 13766 1 149.00000 418.400000
11663 1186 12096 1 149.00000 418.400000
11663 1187 11782 1 149.00000 418.400000
11663 1188 16301 1 149.00000 418.400000
11664 1189 13022 1 149.00000 418.400000
11664 1190 16216 1 149.00000 418.400000
11664 1191 14515 1 149.00000 418.400000
13022 1192 14336 1 149.00000 418.400000
11665 1193 13949 1 149.00000 418.400000
11665 1194 13784 1 149.00000 418.400000
11665 1195 11917 1 149.00000 418.400000
11665 1196 12826 1 149.00000 418.400000
11398 1197 11666 1 149.00000 418.400000
11666 1198 16015 1 149.00000 418.400000
13541 1199 14762 1 149.00000 418.400000
11667 1200 14268 1 149.00000 418.400000
11667 1201 13541 1 149.00000 418.400000
11667 1202 14790 1 149.00000 418.400000
11600 1203 12553 1 149.00000 418.400000
11668 1204 12797 1 149.00000 418.400000
11668 1205 12780 1 149.00000 418.400000
11669 1206 12110 1 149.00000 418.400000
11669 1207 17174 1 149.00000 418.400000
11670 1208 14958 1 149.00000 418.400000
11670 1209 13804 1 149.00000 418.400000
11670 1210 13491 1 149.00000 418.400000
11671 1211 13931 1 149.00000 418.400000
11420 1212 11671 1 149.00000 418.400000
11671 1213 15263 1 149.00000 418.400000
11671 1214 12470 1 149.00000 418.400000
11672 1215 16188 1 149.00000 418.400000
11672 1216 12104 1 149.00000 418.400000
11672 1217 14743 1 149.00000 418.400000
11672 1218 11727 1 149.00000 418.400000
11673 1219 14416 1 149.00000 418.400000
11584 1220 15564 1 149.00000 418.400000
11673 1221 15898 1 149.00000 418.400000
11674 1222 22125 1 149.00000 418.400000
11674 1223 12494 1 149.00000 418.400000
11674 1224 22281 1 149.00000 418.400000
11675 1225 11698 1 149.00000 418.400000
11675 1226 15093 1 149.00000 418.400000
11675 1227 16200 1 149.00000 418.400000
11675 1228 13040 1 149.00000 418.400000
11676 1229 13816 1 149.00000 418.400000
11676 1230 16170 1 149.00000 418.400000
11676 1231 22384 1 149.00000 418.400000
11676 1232 13114 1 149.00000 418.400000
11677 1233 14795 1 149.00000 418.400000
11677 1234 15248 1 149.00000 418.400000
11677 1235 13198 1 149.00000 418.400000
11677 1236 14694 1 149.00000 418.400000
11678 1237 21825 1 149.00000 418.400000
11678 1238 15578 1 149.00000 418.400000
11678 1239 13617 1 149.00000 418.400000
11679 1240 14529 1 149.00000 418.400000
11679 1241 13486 1 149.00000 418.400000
11679 1242 12809 1 149.00000 418.400000
11680 1243 15047 1 149.00000 418.400000
11680 1244 15611 1 149.00000 418.400000
11680 1245 15967 1 149.00000 418.400000
11681 1246 13870 1 149.00000 418.400000
11681 1247 11853 1 149.00000 418.400000
11681 1248 15195 1 149.00000 418.400000
11681 1249 14075 1 149.00000 418.400000
11682 1250 15557 1 149.00000 418.400000
11682 1251 12902 1 149.00000 418.400000
11682 1252 12464 1 149.00000 418.400000
11682 1253 14244 1 149.00000 418.400000
11683 1254 14199 1 149.00000 418.400000
11683 1255 14005 1 149.00000 418.400000
11683 1256 11740 1 149.00000 418.400000
11683 1257 16133 1 149.00000 418.400000
12801 1258 18582 1 149.00000 418.400000
11684 1259 18070 1 149.00000 418.400000
11684 1260 22260 1 149.00000 418.400000
11684 1261 13188 1 149.00000 418.400000
11684 1262 16406 1 149.00000 418.400000
11685 1263 16460 1 149.00000 418.400000
11685 1264 15481 1 149.00000 418.400000
11685 1265 12355 1 149.00000 418.400000
11686 1266 13612 1 149.00000 418.400000
11686 1267 15322 1 149.00000 418.400000
11686 1268 13727 1 149.00000 418.400000
11686 1269 21699 1 149.00000 418.400000
11687 1270 14499 1 149.00000 418.400000
11687 1271 16516 1 149.00000 418.400000
11687 1272 13905 1 149.00000 418.400000
11687 1273 12433 1 149.00000 418.400000
11688 1274 16243 1 149.00000 418.400000
11688 1275 13134 1 149.00000 418.400000
11688 1276 13741 1 149.00000 418.400000
11688 1277 13132 1 149.00000 418.400000
11689 1278 12464 1 149.00000 418.400000
11689 1279 12176 1 149.00000 418.400000
11689 1280 14154 1 149.00000 418.400000
11689 1281 15560 1 149.00000 418.400000
11690 1282 14772 1 149.00000 418.400000
11690 1283 14899 1 149.00000 418.400000
12261 1284 16356 1 149.00000 418.400000
11690 1285 16356 1 149.00000 418.400000
11691 1286 14854 1 149.00000 418.400000
14854 1287 16393 1 149.00000 418.400000
11691 1288 20106 1 149.00000 418.400000
11692 1289 13324 1 149.00000 418.400000
11692 1290 14802 1 149.00000 418.400000
11692 1291 21414 1 149.00000 418.400000
11693 1292 15582 1 149.00000 418.400000
11693 1293 15966 1 149.00000 418.400000
11693 1294 15820 1 149.00000 418.400000
11693 1295 16361 1 149.00000 418.400000
11694 1296 15483 1 149.00000 418.400000
11694 1297 15024 1 149.00000 418.400000
11694 1298 12035 1 149.00000 418.400000
11695 1299 11822 1 149.00000 418.400000
11695 1300 15931 1 149.00000 418.400000
11695 1301 12226 1 149.00000 418.400000
11695 1302 12707 1 149.00000 418.400000
11696 1303 15126 1 149.00000 418.400000
14268 1304 15989 1 149.00000 418.400000
11696 1305 14268 1 149.00000 418.400000
11696 1306 15887 1 149.00000 418.400000
11697 1307 14625 1 149.00000 418.400000
11697 1308 11761 1 149.00000 418.400000
11697 1309 12811 1 149.00000 418.400000
11698 1310 16033 1 149.00000 418.400000
11698 1311 14388 1 149.00000 418.400000
11621 1312 11698 1 149.00000 418.400000
11699 1313 12036 1 149.00000 418.400000
11699 1314 16279 1 149.00000 418.400000
11699 1315 13351 1 149.00000 418.400000
11699 1316 12171 1 149.00000 418.400000
11700 1317 12829 1 149.00000 418.400000
11700 1318 14548 1 149.00000 418.400000
11700 1319 16200 1 149.00000 418.400000
11700 1320 14388 1 149.00000 418.400000
11701 1321 14499 1 149.00000 418.400000
11701 1322 14516 1 149.00000 418.400000
11701 1323 16027 1 149.00000 418.400000
11701 1324 12005 1 149.00000 418.400000
11702 1325 12025 1 149.00000 418.400000
11702 1326 14709 1 149.00000 418.400000
11702 1327 18056 1 149.00000 418.400000
11702 1328 14292 1 149.00000 418.400000
11703 1329 20382 1 149.00000 418.400000
20382 1330 21888 1 149.00000 418.400000
11703 1331 12457 1 149.00000 418.400000
11704 1332 15409 1 149.00000 418.400000
11704 1333 15137 1 149.00000 418.400000
11704 1334 14341 1 149.00000 418.400000
11704 1335 13727 1 149.00000 418.400000
11705 1336 14017 1 149.00000 418.400000
11705 1337 15477 1 149.00000 418.400000
11705 1338 12548 1 149.00000 418.400000
11705 1339 14233 1 149.00000 418.400000
11706 1340 15757 1 149.00000 418.400000
11706 1341 13627 1 149.00000 418.400000
11706 1342 16027 1 149.00000 418.400000
11707 1343 11887 1 149.00000 418.400000
11707 1344 11800 1 149.00000 418.400000
11708 1345 12424 1 149.00000 418.400000
11708 1346 11915 1 149.00000 418.400000
11708 1347 14281 1 149.00000 418.400000
11708 1348 16245 1 149.00000 418.400000
13519 1349 15636 1 149.00000 418.400000
13519 1350 15348 1 149.00000 418.400000
11709 1351 13519 1 149.00000 418.400000
15241 1352 15348 1 149.00000 418.400000
11710 1353 14093 1 149.00000 418.400000
15091 1354 15183 1 149.00000 418.400000
11710 1355 16223 1 149.00000 418.400000
11710 1356 15091 1 149.00000 418.400000
12212 1357 15827 1 149.00000 418.400000
11711 1358 15347 1 149.00000 418.400000
12212 1359 14426 1 149.00000 418.400000
11711 1360 12212 1 149.00000 418.400000
11712 1361 16267 1 149.00000 418.400000
11712 1362 15813 1 149.00000 418.400000
11712 1363 13779 1 149.00000 418.400000
11712 1364 11865 1 149.00000 418.400000
11713 1365 14016 1 149.00000 418.400000
11713 1366 12180 1 149.00000 418.400000
11713 1367 14959 1 149.00000 418.400000
11713 1368 13661 1 149.00000 418.400000
11714 1369 20814 1 149.00000 418.400000
11714 1370 14732 1 149.00000 418.400000
11714 1371 14069 1 149.00000 418.400000
11714 1372 18678 1 149.00000 418.400000
11715 1373 12147 1 149.00000 418.400000
11715 1374 13632 1 149.00000 418.400000
11715 1375 15272 1 149.00000 418.400000
11716 1376 12840 1 149.00000 418.400000
11716 1377 15572 1 149.00000 418.400000
11716 1378 14337 1 149.00000 418.400000
11716 1379 12461 1 149.00000 418.400000
11717 1380 14596 1 149.00000 418.400000
11717 1381 18810 1 149.00000 418.400000
11717 1382 17986 1 149.00000 418.400000
11718 1383 14955 1 149.00000 418.400000
11718 1384 16167 1 149.00000 418.400000
11718 1385 15542 1 149.00000 418.400000
11718 1386 14730 1 149.00000 418.400000
11719 1387 20346 1 149.00000 418.400000
11719 1388 14643 1 149.00000 418.400000
11719 1389 15707 1 149.00000 418.400000
11720 1390 15077 1 149.00000 418.400000
11720 1391 13350 1 149.00000 418.400000
11720 1392 13242 1 149.00000 418.400000
11720 1393 12618 1 149.00000 418.400000
11721 1394 15182 1 149.00000 418.400000
11721 1395 13604 1 149.00000 418.400000
11721 1396 12342 1 149.00000 418.400000
11721 1397 14802 1 149.00000 418.400000
11722 1398 14124 1 149.00000 418.400000
11722 1399 12951 1 149.00000 418.400000
11722 1400 14444 1 149.00000 418.400000
11722 1401 13652 1 149.00000 418.400000
11723 1402 14973 1 149.00000 418.400000
14032 1403 15986 1 149.00000 418.400000
11723 1404 13634 1 149.00000 418.400000
11723 1405 14032 1 149.00000 418.400000
11724 1406 12249 1 149.00000 418.400000
11724 1407 22272 1 149.00000 418.400000
11724 1408 15368 1 149.00000 418.400000
12229 1409 15048 1 149.00000 418.400000
11725 1410 15048 1 149.00000 418.400000
11725 1411 15651 1 149.00000 418.400000
11725 1412 15179 1 149.00000 418.400000
11726 1413 14613 1 149.00000 418.400000
11726 1414 20274 1 149.00000 418.400000
11727 1415 16272 1 149.00000 418.400000
11727 1416 11860 1 149.00000 418.400000
11727 1417 14698 1 149.00000 418.400000
11728 1418 15308 1 149.00000 418.400000
11728 1419 15865 1 149.00000 418.400000
11728 1420 13174 1 149.00000 418.400000
11728 1421 13195 1 149.00000 418.400000
11729 1422 13637 1 149.00000 418.400000
11729 1423 12413 1 149.00000 418.400000
11729 1424 12679 1 149.00000 418.400000
11729 1425 15480 1 149.00000 418.400000
11730 1426 12914 1 149.00000 418.400000
11730 1427 12906 1 149.00000 418.400000
11730 1428 16483 1 149.00000 418.400000
11730 1429 14527 1 149.00000 418.400000
11731 1430 15111 1 149.00000 418.400000
11731 1431 14088 1 149.00000 418.400000
11731 1432 15122 1 149.00000 418.400000
11732 1433 13234 1 149.00000 418.400000
11732 1434 12043 1 149.00000 418.400000
11732 1435 15239 1 149.00000 418.400000
11733 1436 15799 1 149.00000 418.400000
11733 1437 13695 1 149.00000 418.400000
11733 1438 15608 1 149.00000 418.400000
11733 1439 12273 1 149.00000 418.400000
11734 1440 13886 1 149.00000 418.400000
11734 1441 14960 1 149.00000 418.400000
11734 1442 16234 1 149.00000 418.400000
11735 1443 15820 1 149.00000 418.400000
11735 1444 22230 1 149.00000 418.400000
11736 1445 14342 1 149.00000 418.400000
11736 1446 16268 1 149.00000 418.400000
11736 1447 16520 1 149.00000 418.400000
11736 1448 12925 1 149.00000 418.400000
11737 1449 16362 1 149.00000 418.400000
11737 1450 13286 1 149.00000 418.400000
11738 1451 12695 1 149.00000 418.400000
11738 1452 15809 1 149.00000 418.400000
11738 1453 14537 1 149.00000 418.400000
11739 1454 14422 1 149.00000 418.400000
11739 1455 21402 1 149.00000 418.400000
11739 1456 15477 1 149.00000 418.400000
11740 1457 13771 1 149.00000 418.400000
11740 1458 16331 1 149.00000 418.400000
11740 1459 16245 1 149.00000 418.400000
12513 1460 15180 1 149.00000 418.400000
11741 1461 14927 1 149.00000 418.400000
11741 1462 15805 1 149.00000 418.400000
13884 1463 15061 1 149.00000 418.400000
11742 1464 14616 1 149.00000 418.400000
11742 1465 14258 1 149.00000 418.400000
11742 1466 14294 1 149.00000 418.400000
11742 1467 15065 1 149.00000 418.400000
12126 1468 16029 1 149.00000 418.400000
12466 1469 14157 1 149.00000 418.400000
11743 1470 12126 1 149.00000 418.400000
11743 1471 12466 1 149.00000 418.400000
11744 1472 12273 1 149.00000 418.400000
11744 1473 13351 1 149.00000 418.400000
11744 1474 12639 1 149.00000 418.400000
11744 1475 13130 1 149.00000 418.400000
11745 1476 21516 1 149.00000 418.400000
11745 1477 14393 1 149.00000 418.400000
11746 1478 14976 1 149.00000 418.400000
11746 1479 15841 1 149.00000 418.400000
11746 1480 15216 1 149.00000 418.400000
11746 1481 17594 1 149.00000 418.400000
11747 1482 14202 1 149.00000 418.400000
11747 1483 15434 1 149.00000 418.400000
11747 1484 12172 1 149.00000 418.400000
11747 1485 15829 1 149.00000 418.400000
11748 1486 14156 1 149.00000 418.400000
11748 1487 15413 1 149.00000 418.400000
11748 1488 15941 1 149.00000 418.400000
11748 1489 14964 1 149.00000 418.400000
11749 1490 13515 1 149.00000 418.400000
11749 1491 13813 1 149.00000 418.400000
11749 1492 12217 1 149.00000 418.400000
11749 1493 14838 1 149.00000 418.400000
11750 1494 12093 1 149.00000 418.400000
11750 1495 21318 1 149.00000 418.400000
11750 1496 12957 1 149.00000 418.400000
11750 1497 12804 1 149.00000 418.400000
11751 1498 15728 1 149.00000 418.400000
12316 1499 13660 1 149.00000 418.400000
11751 1500 12316 1 149.00000 418.400000
11751 1501 11947 1 149.00000 418.400000
11752 1502 12245 1 149.00000 418.400000
11752 1503 12892 1 149.00000 418.400000
11752 1504 14911 1 149.00000 418.400000
11752 1505 14351 1 149.00000 418.400000
11753 1506 14109 1 149.00000 418.400000
11753 1507 13705 1 149.00000 418.400000
11753 1508 14918 1 149.00000 418.400000
11753 1509 16050 1 149.00000 418.400000
11754 1510 13745 1 149.00000 418.400000
11754 1511 14469 1 149.00000 418.400000
11754 1512 15405 1 149.00000 418.400000
11754 1513 15353 1 149.00000 418.400000
11755 1514 12918 1 149.00000 418.400000
11755 1515 15112 1 149.00000 418.400000
11755 1516 14784 1 149.00000 418.400000
11755 1517 14764 1 149.00000 418.400000
11756 1518 14262 1 149.00000 418.400000
11756 1519 14320 1 149.00000 418.400000
11756 1520 12071 1 149.00000 418.400000
11756 1521 16031 1 149.00000 418.400000
11757 1522 14378 1 149.00000 418.400000
11757 1523 14574 1 149.00000 418.400000
11757 1524 13845 1 149.00000 418.400000
11757 1525 15339 1 149.00000 418.400000
11758 1526 20214 1 149.00000 418.400000
11758 1527 14572 1 149.00000 418.400000
11758 1528 15905 1 149.00000 418.400000
11758 1529 13808 1 149.00000 418.400000
11759 1530 15463 1 149.00000 418.400000
11759 1531 16171 1 149.00000 418.400000
11759 1532 14451 1 149.00000 418.400000
11759 1533 13910 1 149.00000 418.400000
11760 1534 14645 1 149.00000 418.400000
11760 1535 14868 1 149.00000 418.400000
11760 1536 14916 1 149.00000 418.400000
11760 1537 15389 1 149.00000 418.400000
11761 1538 16302 1 149.00000 418.400000
11761 1539 12951 1 149.00000 418.400000
11761 1540 14543 1 149.00000 418.400000
11762 1541 13497 1 149.00000 418.400000
11762 1542 14599 1 149.00000 418.400000
11763 1543 16354 1 149.00000 418.400000
11763 1544 12515 1 149.00000 418.400000
11763 1545 14064 1 149.00000 418.400000
11763 1546 13699 1 149.00000 418.400000
11764 1547 12418 1 149.00000 418.400000
11764 1548 11964 1 149.00000 418.400000
11764 1549 15069 1 149.00000 418.400000
11764 1550 13677 1 149.00000 418.400000
11765 1551 14992 1 149.00000 418.400000
11765 1552 13735 1 149.00000 418.400000
11765 1553 15337 1 149.00000 418.400000
11765 1554 14694 1 149.00000 418.400000
11766 1555 12321 1 149.00000 418.400000
11766 1556 13986 1 149.00000 418.400000
11766 1557 14559 1 149.00000 418.400000
11766 1558 14762 1 149.00000 418.400000
11767 1559 15143 1 149.00000 418.400000
11767 1560 15043 1 149.00000 418.400000
11767 1561 15476 1 149.00000 418.400000
11767 1562 16248 1 149.00000 418.400000
11768 1563 14303 1 149.00000 418.400000
11768 1564 14013 1 149.00000 418.400000
11768 1565 12285 1 149.00000 418.400000
11768 1566 18750 1 149.00000 418.400000
11769 1567 11835 1 149.00000 418.400000
12421 1568 16071 1 149.00000 418.400000
11769 1569 12421 1 149.00000 418.400000
11769 1570 13710 1 149.00000 418.400000
11770 1571 12272 1 149.00000 418.400000
11770 1572 15889 1 149.00000 418.400000
11770 1573 15677 1 149.00000 418.400000
11770 1574 12250 1 149.00000 418.400000
11771 1575 15828 1 149.00000 418.400000
11996 1576 15828 1 149.00000 418.400000
11771 1577 16133 1 149.00000 418.400000
11771 1578 14664 1 149.00000 418.400000
11772 1579 13544 1 149.00000 418.400000
11772 1580 14788 1 149.00000 418.400000
11772 1581 13009 1 149.00000 418.400000
11772 1582 14510 1 149.00000 418.400000
11773 1583 12144 1 149.00000 418.400000
11773 1584 13049 1 149.00000 418.400000
11773 1585 13615 1 149.00000 418.400000
11774 1586 12469 1 149.00000 418.400000
11774 1587 16418 1 149.00000 418.400000
12385 1588 16418 1 149.00000 418.400000
11775 1589 15599 1 149.00000 418.400000
11775 1590 13723 1 149.00000 418.400000
11775 1591 15452 1 149.00000 418.400000
11775 1592 15551 1 149.00000 418.400000
11776 1593 15761 1 149.00000 418.400000
11776 1594 13219 1 149.00000 418.400000
11776 1595 14921 1 149.00000 418.400000
11777 1596 16327 1 149.00000 418.400000
11488 1597 11777 1 149.00000 418.400000
11777 1598 15383 1 149.00000 418.400000
11778 1599 14092 1 149.00000 418.400000
11778 1600 13846 1 149.00000 418.400000
11778 1601 11826 1 149.00000 418.400000
11779 1602 12208 1 149.00000 418.400000
11779 1603 13271 1 149.00000 418.400000
11779 1604 13769 1 149.00000 418.400000
11780 1605 13199 1 149.00000 418.400000
11780 1606 14197 1 149.00000 418.400000
11780 1607 14465 1 149.00000 418.400000
11780 1608 12390 1 149.00000 418.400000
11781 1609 13709 1 149.00000 418.400000
11781 1610 14217 1 149.00000 418.400000
11781 1611 12908 1 149.00000 418.400000
13709 1612 15643 1 149.00000 418.400000
11782 1613 12843 1 149.00000 418.400000
11782 1614 16018 1 149.00000 418.400000
11782 1615 16103 1 149.00000 418.400000
11783 1616 12654 1 149.00000 418.400000
11783 1617 12854 1 149.00000 418.400000
11783 1618 13862 1 149.00000 418.400000
11797 1619 13707 1 149.00000 418.400000
11784 1620 13707 1 149.00000 418.400000
11784 1621 14339 1 149.00000 418.400000
11784 1622 14710 1 149.00000 418.400000
18510 1623 22242 1 149.00000 418.400000
13034 1624 18510 1 149.00000 418.400000
11922 1625 18510 1 149.00000 418.400000
11785 1626 13946 1 149.00000 418.400000
11785 1627 12375 1 149.00000 418.400000
11785 1628 13699 1 149.00000 418.400000
11785 1629 14650 1 149.00000 418.400000
11786 1630 15751 1 149.00000 418.400000
11786 1631 16208 1 149.00000 418.400000
11786 1632 15835 1 149.00000 418.400000
13311 1633 16208 1 149.00000 418.400000
11787 1634 21957 1 149.00000 418.400000
11787 1635 22005 1 149.00000 418.400000
11787 1636 13615 1 149.00000 418.400000
11788 1637 15942 1 149.00000 418.400000
11788 1638 14911 1 149.00000 418.400000
11788 1639 14121 1 149.00000 418.400000
11788 1640 15187 1 149.00000 418.400000
11789 1641 13542 1 149.00000 418.400000
11789 1642 12735 1 149.00000 418.400000
11789 1643 20094 1 149.00000 418.400000
18522 1644 22248 1 149.00000 418.400000
18522 1645 22098 1 149.00000 418.400000
14620 1646 18522 1 149.00000 418.400000
11641 1647 14367 1 149.00000 418.400000
12304 1648 13324 1 149.00000 418.400000
11641 1649 12304 1 149.00000 418.400000
11791 1650 13216 1 149.00000 418.400000
11791 1651 16303 1 149.00000 418.400000
11792 1652 18534 1 149.00000 418.400000
11792 1653 12768 1 149.00000 418.400000
11792 1654 11944 1 149.00000 418.400000
13202 1655 18534 1 149.00000 418.400000
11793 1656 16339 1 149.00000 418.400000
11793 1657 13416 1 149.00000 418.400000
11793 1658 14532 1 149.00000 418.400000
11793 1659 12386 1 149.00000 418.400000
11794 1660 12747 1 149.00000 418.400000
11794 1661 16513 1 149.00000 418.400000
11794 1662 15506 1 149.00000 418.400000
11794 1663 13740 1 149.00000 418.400000
11795 1664 13218 1 149.00000 418.400000
11795 1665 12661 1 149.00000 418.400000
11795 1666 12820 1 149.00000 418.400000
11795 1667 15580 1 149.00000 418.400000
11796 1668 15220 1 149.00000 418.400000
11796 1669 15548 1 149.00000 418.400000
11796 1670 16490 1 149.00000 418.400000
11796 1671 12228 1 149.00000 418.400000
11797 1672 13631 1 149.00000 418.400000
11797 1673 13800 1 149.00000 418.400000
11798 1674 15735 1 149.00000 418.400000
11798 1675 14042 1 149.00000 418.400000
11798 1676 14913 1 149.00000 418.400000
11798 1677 12889 1 149.00000 418.400000
11799 1678 15565 1 149.00000 418.400000
11799 1679 12659 1 149.00000 418.400000
11799 1680 14459 1 149.00000 418.400000
11800 1681 14695 1 149.00000 418.400000
11800 1682 14428 1 149.00000 418.400000
11800 1683 13456 1 149.00000 418.400000
18252 1684 21414 1 149.00000 418.400000
18546 1685 20670 1 149.00000 418.400000
13971 1686 16866 1 149.00000 418.400000
13971 1687 18558 1 149.00000 418.400000
13394 1688 18558 1 149.00000 418.400000
11801 1689 19470 1 149.00000 418.400000
11801 1690 14832 1 149.00000 418.400000
11801 1691 14990 1 149.00000 418.400000
11802 1692 13861 1 149.00000 418.400000
11802 1693 13315 1 149.00000 418.400000
11802 1694 15615 1 149.00000 418.400000
11802 1695 14251 1 149.00000 418.400000
12455 1696 16211 1 149.00000 418.400000
11803 1697 12455 1 149.00000 418.400000
11803 1698 11936 1 149.00000 418.400000
11803 1699 12502 1 149.00000 418.400000
11804 1700 15959 1 149.00000 418.400000
11804 1701 21669 1 149.00000 418.400000
11804 1702 13619 1 149.00000 418.400000
11804 1703 20442 1 149.00000 418.400000
11805 1704 15052 1 149.00000 418.400000
11805 1705 13014 1 149.00000 418.400000
11805 1706 16320 1 149.00000 418.400000
11805 1707 14599 1 149.00000 418.400000
11806 1708 12443 1 149.00000 418.400000
11806 1709 15065 1 149.00000 418.400000
11806 1710 14994 1 149.00000 418.400000
11807 1711 15292 1 149.00000 418.400000
15070 1712 15292 1 149.00000 418.400000
11807 1713 15665 1 149.00000 418.400000
11807 1714 14632 1 149.00000 418.400000
11808 1715 21999 1 149.00000 418.400000
11808 1716 13206 1 149.00000 418.400000
11808 1717 16544 1 149.00000 418.400000
11809 1718 13101 1 149.00000 418.400000
11810 1719 14645 1 149.00000 418.400000
12868 1720 16125 1 149.00000 418.400000
12868 1721 16040 1 149.00000 418.400000
11810 1722 12868 1 149.00000 418.400000
11811 1723 13384 1 149.00000 418.400000
11811 1724 15524 1 149.00000 418.400000
11811 1725 15531 1 149.00000 418.400000
11811 1726 16312 1 149.00000 418.400000
11812 1727 22191 1 149.00000 418.400000
11813 1728 15958 1 149.00000 418.400000
11813 1729 14260 1 149.00000 418.400000
11813 1730 12165 1 149.00000 418.400000
11814 1731 15010 1 149.00000 418.400000
11814 1732 15895 1 149.00000 418.400000
11814 1733 13280 1 149.00000 418.400000
11814 1734 13174 1 149.00000 418.400000
11815 1735 14794 1 149.00000 418.400000
11815 1736 15482 1 149.00000 418.400000
11815 1737 14003 1 149.00000 418.400000
11816 1738 15756 1 149.00000 418.400000
11816 1739 16492 1 149.00000 418.400000
14253 1740 15756 1 149.00000 418.400000
12410 1741 16492 1 149.00000 418.400000
11817 1742 16656 1 149.00000 418.400000
11818 1743 12297 1 149.00000 418.400000
11818 1744 12329 1 149.00000 418.400000
11818 1745 14653 1 149.00000 418.400000
11818 1746 15511 1 149.00000 418.400000
11819 1747 12971 1 149.00000 418.400000
11819 1748 15371 1 149.00000 418.400000
11528 1749 14987 1 149.00000 418.400000
16195 1750 16530 1 149.00000 418.400000
11820 1751 22269 1 149.00000 418.400000
11820 1752 13978 1 149.00000 418.400000
11820 1753 14231 1 149.00000 418.400000
11821 1754 15691 1 149.00000 418.400000
11821 1755 21993 1 149.00000 418.400000
11821 1756 21837 1 149.00000 418.400000
11821 1757 13138 1 149.00000 418.400000
16142 1758 18570 1 149.00000 418.400000
14231 1759 18570 1 149.00000 418.400000
15704 1760 18570 1 149.00000 418.400000
11822 1761 13006 1 149.00000 418.400000
11822 1762 15510 1 149.00000 418.400000
11822 1763 12102 1 149.00000 418.400000
11823 1764 12228 1 149.00000 418.400000
11823 1765 13762 1 149.00000 418.400000
11823 1766 12325 1 149.00000 418.400000
11823 1767 12391 1 149.00000 418.400000
11824 1768 14205 1 149.00000 418.400000
11824 1769 12833 1 149.00000 418.400000
11824 1770 12772 1 149.00000 418.400000
11824 1771 14092 1 149.00000 418.400000
11825 1772 16852 1 149.00000 418.400000
11825 1773 12434 1 149.00000 418.400000
11825 1774 21693 1 149.00000 418.400000
11825 1775 14357 1 149.00000 418.400000
16511 1776 18582 1 149.00000 418.400000
12718 1777 18582 1 149.00000 418.400000
11826 1778 14519 1 149.00000 418.400000
11826 1779 12882 1 149.00000 418.400000
11826 1780 16244 1 149.00000 418.400000
11827 1781 22212 1 149.00000 418.400000
11827 1782 12797 1 149.00000 418.400000
11827 1783 13853 1 149.00000 418.400000
11827 1784 15957 1 149.00000 418.400000
11828 1785 14009 1 149.00000 418.400000
11828 1786 15024 1 149.00000 418.400000
11828 1787 14863 1 149.00000 418.400000
11829 1788 14926 1 149.00000 418.400000
11829 1789 14486 1 149.00000 418.400000
11829 1790 14701 1 149.00000 418.400000
11829 1791 12881 1 149.00000 418.400000
11830 1792 12828 1 149.00000 418.400000
11830 1793 12924 1 149.00000 418.400000
11830 1794 13982 1 149.00000 418.400000
11831 1795 13581 1 149.00000 418.400000
11831 1796 14866 1 149.00000 418.400000
11831 1797 16163 1 149.00000 418.400000
11831 1798 14122 1 149.00000 418.400000
11832 1799 14044 1 149.00000 418.400000
11832 1800 13263 1 149.00000 418.400000
11832 1801 12623 1 149.00000 418.400000
11832 1802 12335 1 149.00000 418.400000
11833 1803 12095 1 149.00000 418.400000
11833 1804 14516 1 149.00000 418.400000
11833 1805 16516 1 149.00000 418.400000
11833 1806 14610 1 149.00000 418.400000
14996 1807 18594 1 149.00000 418.400000
13255 1808 18594 1 149.00000 418.400000
11834 1809 12471 1 149.00000 418.400000
11834 1810 12118 1 149.00000 418.400000
11834 1811 13454 1 149.00000 418.400000
11835 1812 13669 1 149.00000 418.400000
11835 1813 11898 1 149.00000 418.400000
11835 1814 14137 1 149.00000 418.400000
11836 1815 12654 1 149.00000 418.400000
11836 1816 12935 1 149.00000 418.400000
11836 1817 14227 1 149.00000 418.400000
11836 1818 16297 1 149.00000 418.400000
11837 1819 12075 1 149.00000 418.400000
11837 1820 13031 1 149.00000 418.400000
11837 1821 15465 1 149.00000 418.400000
11838 1822 13402 1 149.00000 418.400000
11838 1823 14740 1 149.00000 418.400000
11838 1824 16520 1 149.00000 418.400000
11839 1825 15321 1 149.00000 418.400000
11839 1826 15858 1 149.00000 418.400000
11839 1827 13975 1 149.00000 418.400000
11839 1828 15807 1 149.00000 418.400000
13382 1829 18606 1 149.00000 418.400000
18606 1830 21576 1 149.00000 418.400000
13942 1831 18606 1 149.00000 418.400000
11840 1832 14114 1 149.00000 418.400000
11840 1833 12562 1 149.00000 418.400000
11840 1834 15261 1 149.00000 418.400000
11840 1835 15480 1 149.00000 418.400000
11841 1836 13691 1 149.00000 418.400000
11841 1837 12932 1 149.00000 418.400000
11841 1838 15643 1 149.00000 418.400000
11842 1839 14423 1 149.00000 418.400000
11842 1840 13282 1 149.00000 418.400000
11842 1841 12431 1 149.00000 418.400000
11842 1842 14437 1 149.00000 418.400000
11843 1843 16189 1 149.00000 418.400000
11843 1844 15802 1 149.00000 418.400000
11843 1845 12339 1 149.00000 418.400000
11843 1846 15322 1 149.00000 418.400000
11844 1847 12620 1 149.00000 418.400000
11844 1848 12508 1 149.00000 418.400000
11844 1849 12732 1 149.00000 418.400000
11844 1850 14165 1 149.00000 418.400000
11845 1851 14432 1 149.00000 418.400000
11845 1852 12985 1 149.00000 418.400000
11845 1853 16026 1 149.00000 418.400000
11845 1854 11908 1 149.00000 418.400000
11846 1855 14837 1 149.00000 418.400000
11846 1856 15267 1 149.00000 418.400000
11846 1857 15564 1 149.00000 418.400000
11392 1858 21438 1 149.00000 418.400000
11847 1859 15186 1 149.00000 418.400000
11847 1860 15350 1 149.00000 418.400000
11847 1861 12558 1 149.00000 418.400000
11847 1862 13018 1 149.00000 418.400000
12898 1863 18618 1 149.00000 418.400000
18618 1864 20058 1 149.00000 418.400000
14900 1865 18618 1 149.00000 418.400000
16465 1866 18630 1 149.00000 418.400000
15489 1867 18630 1 149.00000 418.400000
11848 1868 14216 1 149.00000 418.400000
11848 1869 16461 1 149.00000 418.400000
11848 1870 15800 1 149.00000 418.400000
11848 1871 16014 1 149.00000 418.400000
11849 1872 13211 1 149.00000 418.400000
11849 1873 11884 1 149.00000 418.400000
11849 1874 13749 1 149.00000 418.400000
11849 1875 16249 1 149.00000 418.400000
11850 1876 15780 1 149.00000 418.400000
11850 1877 22092 1 149.00000 418.400000
11850 1878 16491 1 149.00000 418.400000
11851 1879 14166 1 149.00000 418.400000
11851 1880 15981 1 149.00000 418.400000
11851 1881 13032 1 149.00000 418.400000
11851 1882 12479 1 149.00000 418.400000
11852 1883 14058 1 149.00000 418.400000
11852 1884 13008 1 149.00000 418.400000
11852 1885 14089 1 149.00000 418.400000
11853 1886 12299 1 149.00000 418.400000
11853 1887 14595 1 149.00000 418.400000
11853 1888 13345 1 149.00000 418.400000
18642 1889 21765 1 149.00000 418.400000
16371 1890 18642 1 149.00000 418.400000
13116 1891 18642 1 149.00000 418.400000
11854 1892 13986 1 149.00000 418.400000
11854 1893 14885 1 149.00000 418.400000
13986 1894 15621 1 149.00000 418.400000
11854 1895 15638 1 149.00000 418.400000
18654 1896 21114 1 149.00000 418.400000
16393 1897 18654 1 149.00000 418.400000
11855 1898 12024 1 149.00000 418.400000
11855 1899 14551 1 149.00000 418.400000
11855 1900 14455 1 149.00000 418.400000
11855 1901 16177 1 149.00000 418.400000
14389 1902 16509 1 149.00000 418.400000
11856 1903 12942 1 149.00000 418.400000
15458 1904 15821 1 149.00000 418.400000
11856 1905 14389 1 149.00000 418.400000
11857 1906 15312 1 149.00000 418.400000
11857 1907 14498 1 149.00000 418.400000
11857 1908 16043 1 149.00000 418.400000
11857 1909 12186 1 149.00000 418.400000
11858 1910 12989 1 149.00000 418.400000
11858 1911 14078 1 149.00000 418.400000
14078 1912 14867 1 149.00000 418.400000
11858 1913 13737 1 149.00000 418.400000
11859 1914 16243 1 149.00000 418.400000
11859 1915 16068 1 149.00000 418.400000
11859 1916 13133 1 149.00000 418.400000
11859 1917 12169 1 149.00000 418.400000
11860 1918 14976 1 149.00000 418.400000
11860 1919 13484 1 149.00000 418.400000
11861 1920 16269 1 149.00000 418.400000
11861 1921 15250 1 149.00000 418.400000
11861 1922 22311 1 149.00000 418.400000
11861 1923 13416 1 149.00000 418.400000
15284 1924 16077 1 149.00000 418.400000
11862 1925 15284 1 149.00000 418.400000
11862 1926 21846 1 149.00000 418.400000
14716 1927 21846 1 149.00000 418.400000
12945 1928 16255 1 149.00000 418.400000
11863 1929 19446 1 149.00000 418.400000
11972 1930 16010 1 149.00000 418.400000
11863 1931 12945 1 149.00000 418.400000
11864 1932 16022 1 149.00000 418.400000
11864 1933 16059 1 149.00000 418.400000
11864 1934 14821 1 149.00000 418.400000
11864 1935 14932 1 149.00000 418.400000
11865 1936 13974 1 149.00000 418.400000
11865 1937 12114 1 149.00000 418.400000
11865 1938 13534 1 149.00000 418.400000
14239 1939 19374 1 149.00000 418.400000
11866 1940 11917 1 149.00000 418.400000
11866 1941 13493 1 149.00000 418.400000
11866 1942 15678 1 149.00000 418.400000
11867 1943 12718 1 149.00000 418.400000
11867 1944 16642 1 149.00000 418.400000
11867 1945 21090 1 149.00000 418.400000
11442 1946 12612 1 149.00000 418.400000
11868 1947 15114 1 149.00000 418.400000
11442 1948 14050 1 149.00000 418.400000
11869 1949 15079 1 149.00000 418.400000
11869 1950 13152 1 149.00000 418.400000
11869 1951 22110 1 149.00000 418.400000
11870 1952 13703 1 149.00000 418.400000
11870 1953 14090 1 149.00000 418.400000
11870 1954 14179 1 149.00000 418.400000
11870 1955 13031 1 149.00000 418.400000
11871 1956 12174 1 149.00000 418.400000
11871 1957 12413 1 149.00000 418.400000
11871 1958 13323 1 149.00000 418.400000
11871 1959 13015 1 149.00000 418.400000
11872 1960 17384 1 149.00000 418.400000
11872 1961 13858 1 149.00000 418.400000
11872 1962 21270 1 149.00000 418.400000
11872 1963 12823 1 149.00000 418.400000
11873 1964 12019 1 149.00000 418.400000
11873 1965 14442 1 149.00000 418.400000
11873 1966 16333 1 149.00000 418.400000
11873 1967 15980 1 149.00000 418.400000
11874 1968 16454 1 149.00000 418.400000
11874 1969 18014 1 149.00000 418.400000
11874 1970 22017 1 149.00000 418.400000
11875 1971 22032 1 149.00000 418.400000
11875 1972 19962 1 149.00000 418.400000
11875 1973 15679 1 149.00000 418.400000
13521 1974 15679 1 149.00000 418.400000
14653 1975 15823 1 149.00000 418.400000
11876 1976 14864 1 149.00000 418.400000
11876 1977 15823 1 149.00000 418.400000
11876 1978 12779 1 149.00000 418.400000
11877 1979 11903 1 149.00000 418.400000
11877 1980 12241 1 149.00000 418.400000
11877 1981 13336 1 149.00000 418.400000
11877 1982 15286 1 149.00000 418.400000
11878 1983 12967 1 149.00000 418.400000
11878 1984 22290 1 149.00000 418.400000
11878 1985 13970 1 149.00000 418.400000
11878 1986 18714 1 149.00000 418.400000
11879 1987 20058 1 149.00000 418.400000
11879 1988 11935 1 149.00000 418.400000
15858 1989 15885 1 149.00000 418.400000
11879 1990 15885 1 149.00000 418.400000
11880 1991 13916 1 149.00000 418.400000
11880 1992 16144 1 149.00000 418.400000
11880 1993 22429 1 149.00000 418.400000
11880 1994 12096 1 149.00000 418.400000
11881 1995 13741 1 149.00000 418.400000
11881 1996 13142 1 149.00000 418.400000
11881 1997 14421 1 149.00000 418.400000
11881 1998 15462 1 149.00000 418.400000
11882 1999 14708 1 149.00000 418.400000
11882 2000 13063 1 149.00000 418.400000
11882 2001 14368 1 149.00000 418.400000
11882 2002 15011 1 149.00000 418.400000
11883 2003 12129 1 149.00000 418.400000
11883 2004 13900 1 149.00000 418.400000
11883 2005 15557 1 149.00000 418.400000
11884 2006 15985 1 149.00000 418.400000
11884 2007 14789 1 149.00000 418.400000
11884 2008 14606 1 149.00000 418.400000
14155 2009 18266 1 149.00000 418.400000
11885 2010 14794 1 149.00000 418.400000
11885 2011 12953 1 149.00000 418.400000
11885 2012 13035 1 149.00000 418.400000
11885 2013 13238 1 149.00000 418.400000
11886 2014 19974 1 149.00000 418.400000
11886 2015 13363 1 149.00000 418.400000
11886 2016 15635 1 149.00000 418.400000
11886 2017 13152 1 149.00000 418.400000
13629 2018 18666 1 149.00000 418.400000
18666 2019 21891 1 149.00000 418.400000
11887 2020 15053 1 149.00000 418.400000
11887 2021 12667 1 149.00000 418.400000
11887 2022 12205 1 149.00000 418.400000
11888 2023 12795 1 149.00000 418.400000
11888 2024 15003 1 149.00000 418.400000
11888 2025 12836 1 149.00000 418.400000
11888 2026 18350 1 149.00000 418.400000
11889 2027 12159 1 149.00000 418.400000
11889 2028 15808 1 149.00000 418.400000
11890 2029 13362 1 149.00000 418.400000
11890 2030 15080 1 149.00000 418.400000
11890 2031 21948 1 149.00000 418.400000
11890 2032 12447 1 149.00000 418.400000
11891 2033 13895 1 149.00000 418.400000
11891 2034 16320 1 149.00000 418.400000
11891 2035 15347 1 149.00000 418.400000
11891 2036 22305 1 149.00000 418.400000
11892 2037 14831 1 149.00000 418.400000
11892 2038 14974 1 149.00000 418.400000
11892 2039 14885 1 149.00000 418.400000
11892 2040 12111 1 149.00000 418.400000
16361 2041 18678 1 149.00000 418.400000
18678 2042 22119 1 149.00000 418.400000
13397 2043 18690 1 149.00000 418.400000
15155 2044 18690 1 149.00000 418.400000
18690 2045 20850 1 149.00000 418.400000
18702 2046 21246 1 149.00000 418.400000
14751 2047 18702 1 149.00000 418.400000
15196 2048 18702 1 149.00000 418.400000
11893 2049 13085 1 149.00000 418.400000
11893 2050 15315 1 149.00000 418.400000
11893 2051 13458 1 149.00000 418.400000
11893 2052 13154 1 149.00000 418.400000
11894 2053 11899 1 149.00000 418.400000
11894 2054 13110 1 149.00000 418.400000
11895 2055 12171 1 149.00000 418.400000
11895 2056 15921 1 149.00000 418.400000
11895 2057 16063 1 149.00000 418.400000
11895 2058 12088 1 149.00000 418.400000
11896 2059 13271 1 149.00000 418.400000
11896 2060 12173 1 149.00000 418.400000
11896 2061 14150 1 149.00000 418.400000
11897 2062 15852 1 149.00000 418.400000
11897 2063 15033 1 149.00000 418.400000
11897 2064 12349 1 149.00000 418.400000
11897 2065 15577 1 149.00000 418.400000
18714 2066 20766 1 149.00000 418.400000
11898 2067 13520 1 149.00000 418.400000
11898 2068 15268 1 149.00000 418.400000
11898 2069 12960 1 149.00000 418.400000
11899 2070 11953 1 149.00000 418.400000
11899 2071 14383 1 149.00000 418.400000
11900 2072 13859 1 149.00000 418.400000
11900 2073 14922 1 149.00000 418.400000
11560 2074 15750 1 149.00000 418.400000
11901 2075 12429 1 149.00000 418.400000
11901 2076 14344 1 149.00000 418.400000
11901 2077 15120 1 149.00000 418.400000
11901 2078 16424 1 149.00000 418.400000
11902 2079 14095 1 149.00000 418.400000
11902 2080 14794 1 149.00000 418.400000
11902 2081 12896 1 149.00000 418.400000
11903 2082 12337 1 149.00000 418.400000
11903 2083 16109 1 149.00000 418.400000
11904 2084 14394 1 149.00000 418.400000
11904 2085 14739 1 149.00000 418.400000
11904 2086 16013 1 149.00000 418.400000
11904 2087 12839 1 149.00000 418.400000
11905 2088 12338 1 149.00000 418.400000
11905 2089 13635 1 149.00000 418.400000
11905 2090 13069 1 149.00000 418.400000
11905 2091 13850 1 149.00000 418.400000
11906 2092 15747 1 149.00000 418.400000
11906 2093 13650 1 149.00000 418.400000
11906 2094 14763 1 149.00000 418.400000
11906 2095 19398 1 149.00000 418.400000
14411 2096 18726 1 149.00000 418.400000
18726 2097 19422 1 149.00000 418.400000
11907 2098 16334 1 149.00000 418.400000
16334 2099 21927 1 149.00000 418.400000
11907 2100 18000 1 149.00000 418.400000
11908 2101 11929 1 149.00000 418.400000
11908 2102 15773 1 149.00000 418.400000
11908 2103 15772 1 149.00000 418.400000
11909 2104 16220 1 149.00000 418.400000
11909 2105 13416 1 149.00000 418.400000
11909 2106 16020 1 149.00000 418.400000
11910 2107 21054 1 149.00000 418.400000
11910 2108 16351 1 149.00000 418.400000
11911 2109 12769 1 149.00000 418.400000
11911 2110 15764 1 149.00000 418.400000
11911 2111 14543 1 149.00000 418.400000
11911 2112 21897 1 149.00000 418.400000
11912 2113 15934 1 149.00000 418.400000
11912 2114 12961 1 149.00000 418.400000
11912 2115 13457 1 149.00000 418.400000
11912 2116 15182 1 149.00000 418.400000
12153 2117 13792 1 149.00000 418.400000
11913 2118 13792 1 149.00000 418.400000
11913 2119 15920 1 149.00000 418.400000
11913 2120 14004 1 149.00000 418.400000
11914 2121 13941 1 149.00000 418.400000
11914 2122 13414 1 149.00000 418.400000
11914 2123 12736 1 149.00000 418.400000
11914 2124 16385 1 149.00000 418.400000
11915 2125 16427 1 149.00000 418.400000
11915 2126 13146 1 149.00000 418.400000
11916 2127 12306 1 149.00000 418.400000
11916 2128 12601 1 149.00000 418.400000
11916 2129 16049 1 149.00000 418.400000
11916 2130 15438 1 149.00000 418.400000
11917 2131 14807 1 149.00000 418.400000
11917 2132 14282 1 149.00000 418.400000
11918 2133 11971 1 149.00000 418.400000
11918 2134 13305 1 149.00000 418.400000
11918 2135 15189 1 149.00000 418.400000
11918 2136 13641 1 149.00000 418.400000
11919 2137 14105 1 149.00000 418.400000
11919 2138 15542 1 149.00000 418.400000
11919 2139 19062 1 149.00000 418.400000
11920 2140 13821 1 149.00000 418.400000
11920 2141 13059 1 149.00000 418.400000
11920 2142 12753 1 149.00000 418.400000
11920 2143 15085 1 149.00000 418.400000
11921 2144 16211 1 149.00000 418.400000
11921 2145 13054 1 149.00000 418.400000
11921 2146 13503 1 149.00000 418.400000
11921 2147 13082 1 149.00000 418.400000
17552 2148 18738 1 149.00000 418.400000
11922 2149 13430 1 149.00000 418.400000
11922 2150 16306 1 149.00000 418.400000
11922 2151 14935 1 149.00000 418.400000
11923 2152 15738 1 149.00000 418.400000
11923 2153 15999 1 149.00000 418.400000
11923 2154 15086 1 149.00000 418.400000
11923 2155 16231 1 149.00000 418.400000
11924 2156 15806 1 149.00000 418.400000
11924 2157 16221 1 149.00000 418.400000
11924 2158 13780 1 149.00000 418.400000
14373 2159 18750 1 149.00000 418.400000
12580 2160 18750 1 149.00000 418.400000
12754 2161 18762 1 149.00000 418.400000
16403 2162 18762 1 149.00000 418.400000
14356 2163 20706 1 149.00000 418.400000
18762 2164 20706 1 149.00000 418.400000
14239 2165 18774 1 149.00000 418.400000
13904 2166 18774 1 149.00000 418.400000
11925 2167 15293 1 149.00000 418.400000
11925 2168 14401 1 149.00000 418.400000
11925 2169 15344 1 149.00000 418.400000
11925 2170 14536 1 149.00000 418.400000
11926 2171 13331 1 149.00000 418.400000
11926 2172 14624 1 149.00000 418.400000
11926 2173 16363 1 149.00000 418.400000
11926 2174 15377 1 149.00000 418.400000
11927 2175 12764 1 149.00000 418.400000
16346 2176 17300 1 149.00000 418.400000
11927 2177 13881 1 149.00000 418.400000
11927 2178 16346 1 149.00000 418.400000
11928 2179 15263 1 149.00000 418.400000
11928 2180 14360 1 149.00000 418.400000
11929 2181 15705 1 149.00000 418.400000
11929 2182 14008 1 149.00000 418.400000
11929 2183 13844 1 149.00000 418.400000
11930 2184 12565 1 149.00000 418.400000
11930 2185 14606 1 149.00000 418.400000
11930 2186 16467 1 149.00000 418.400000
11930 2187 14164 1 149.00000 418.400000
11931 2188 12787 1 149.00000 418.400000
11931 2189 16072 1 149.00000 418.400000
11931 2190 12362 1 149.00000 418.400000
11931 2191 13829 1 149.00000 418.400000
11932 2192 16459 1 149.00000 418.400000
11932 2193 16254 1 149.00000 418.400000
15332 2194 16275 1 149.00000 418.400000
11932 2195 16275 1 149.00000 418.400000
11933 2196 15731 1 149.00000 418.400000
11933 2197 15529 1 149.00000 418.400000
11933 2198 15963 1 149.00000 418.400000
11933 2199 15090 1 149.00000 418.400000
15218 2200 18786 1 149.00000 418.400000
14889 2201 18786 1 149.00000 418.400000
11934 2202 12732 1 149.00000 418.400000
11934 2203 12710 1 149.00000 418.400000
11934 2204 15999 1 149.00000 418.400000
11934 2205 13794 1 149.00000 418.400000
11935 2206 15864 1 149.00000 418.400000
11935 2207 13041 1 149.00000 418.400000
11935 2208 11942 1 149.00000 418.400000
11936 2209 15084 1 149.00000 418.400000
11936 2210 12930 1 149.00000 418.400000
11936 2211 12875 1 149.00000 418.400000
11937 2212 13073 1 149.00000 418.400000
11937 2213 15255 1 149.00000 418.400000
11937 2214 12585 1 149.00000 418.400000
11937 2215 16452 1 149.00000 418.400000
11938 2216 12334 1 149.00000 418.400000
11938 2217 12560 1 149.00000 418.400000
11939 2218 15251 1 149.00000 418.400000
11939 2219 12606 1 149.00000 418.400000
11939 2220 15478 1 149.00000 418.400000
11939 2221 15706 1 149.00000 418.400000
11940 2222 13165 1 149.00000 418.400000
11940 2223 15160 1 149.00000 418.400000
11940 2224 13743 1 149.00000 418.400000
11940 2225 14493 1 149.00000 418.400000
11941 2226 13377 1 149.00000 418.400000
11941 2227 15617 1 149.00000 418.400000
11941 2228 15406 1 149.00000 418.400000
11941 2229 13368 1 149.00000 418.400000
11942 2230 15003 1 149.00000 418.400000
11942 2231 15807 1 149.00000 418.400000
11942 2232 12898 1 149.00000 418.400000
12456 2233 18798 1 149.00000 418.400000
12856 2234 18798 1 149.00000 418.400000
11943 2235 13854 1 149.00000 418.400000
11943 2236 12883 1 149.00000 418.400000
11943 2237 14762 1 149.00000 418.400000
11943 2238 13366 1 149.00000 418.400000
11944 2239 14949 1 149.00000 418.400000
11944 2240 21282 1 149.00000 418.400000
11944 2241 12484 1 149.00000 418.400000
11945 2242 15982 1 149.00000 418.400000
11945 2243 13717 1 149.00000 418.400000
11945 2244 12895 1 149.00000 418.400000
11945 2245 15784 1 149.00000 418.400000
11946 2246 16978 1 149.00000 418.400000
11946 2247 16439 1 149.00000 418.400000
11946 2248 13085 1 149.00000 418.400000
11946 2249 14921 1 149.00000 418.400000
11947 2250 14517 1 149.00000 418.400000
11947 2251 12962 1 149.00000 418.400000
11947 2252 15496 1 149.00000 418.400000
11948 2253 21876 1 149.00000 418.400000
11948 2254 13530 1 149.00000 418.400000
11948 2255 13602 1 149.00000 418.400000
11948 2256 13933 1 149.00000 418.400000
11949 2257 12904 1 149.00000 418.400000
11949 2258 14557 1 149.00000 418.400000
11949 2259 15962 1 149.00000 418.400000
11949 2260 13423 1 149.00000 418.400000
11950 2261 14705 1 149.00000 418.400000
11950 2262 16042 1 149.00000 418.400000
11950 2263 13021 1 149.00000 418.400000
11950 2264 14953 1 149.00000 418.400000
11951 2265 14593 1 149.00000 418.400000
11951 2266 13212 1 149.00000 418.400000
11951 2267 13714 1 149.00000 418.400000
11951 2268 12368 1 149.00000 418.400000
12135 2269 16396 1 149.00000 418.400000
11952 2270 16396 1 149.00000 418.400000
11952 2271 16259 1 149.00000 418.400000
11952 2272 12179 1 149.00000 418.400000
11953 2273 12638 1 149.00000 418.400000
11953 2274 14861 1 149.00000 418.400000
11953 2275 15115 1 149.00000 418.400000
11954 2276 14309 1 149.00000 418.400000
11954 2277 12915 1 149.00000 418.400000
11954 2278 13369 1 149.00000 418.400000
11954 2279 16190 1 149.00000 418.400000
11955 2280 15247 1 149.00000 418.400000
11955 2281 13779 1 149.00000 418.400000
11955 2282 15392 1 149.00000 418.400000
11955 2283 15543 1 149.00000 418.400000
11956 2284 13491 1 149.00000 418.400000
11956 2285 13505 1 149.00000 418.400000
11956 2286 12258 1 149.00000 418.400000
11956 2287 14860 1 149.00000 418.400000
11957 2288 14300 1 149.00000 418.400000
11957 2289 12595 1 149.00000 418.400000
11957 2290 14796 1 149.00000 418.400000
11958 2291 16387 1 149.00000 418.400000
11958 2292 14497 1 149.00000 418.400000
11958 2293 14604 1 149.00000 418.400000
11958 2294 12190 1 149.00000 418.400000
15318 2295 18810 1 149.00000 418.400000
12720 2296 18822 1 149.00000 418.400000
18822 2297 19878 1 149.00000 418.400000
17188 2298 18822 1 149.00000 418.400000
13772 2299 18834 1 149.00000 418.400000
11959 2300 16196 1 149.00000 418.400000
11959 2301 14917 1 149.00000 418.400000
11959 2302 12172 1 149.00000 418.400000
11959 2303 13856 1 149.00000 418.400000
13747 2304 18846 1 149.00000 418.400000
11960 2305 16101 1 149.00000 418.400000
11960 2306 14065 1 149.00000 418.400000
11960 2307 13117 1 149.00000 418.400000
11960 2308 15731 1 149.00000 418.400000
11961 2309 12480 1 149.00000 418.400000
11961 2310 15479 1 149.00000 418.400000
11961 2311 15115 1 149.00000 418.400000
11961 2312 15567 1 149.00000 418.400000
11962 2313 16242 1 149.00000 418.400000
11962 2314 13378 1 149.00000 418.400000
11962 2315 13725 1 149.00000 418.400000
11962 2316 15165 1 149.00000 418.400000
11963 2317 16122 1 149.00000 418.400000
11963 2318 16147 1 149.00000 418.400000
11963 2319 13404 1 149.00000 418.400000
11963 2320 12691 1 149.00000 418.400000
11964 2321 14154 1 149.00000 418.400000
11964 2322 14734 1 149.00000 418.400000
11964 2323 15262 1 149.00000 418.400000
18870 2324 19806 1 149.00000 418.400000
14871 2325 18870 1 149.00000 418.400000
11965 2326 13453 1 149.00000 418.400000
11965 2327 13124 1 149.00000 418.400000
11965 2328 12014 1 149.00000 418.400000
11965 2329 13914 1 149.00000 418.400000
11966 2330 14556 1 149.00000 418.400000
11966 2331 16381 1 149.00000 418.400000
13770 2332 14556 1 149.00000 418.400000
11967 2333 12390 1 149.00000 418.400000
11967 2334 12225 1 149.00000 418.400000
11967 2335 14310 1 149.00000 418.400000
11967 2336 14726 1 149.00000 418.400000
14907 2337 15328 1 149.00000 418.400000
11784 2338 11968 1 149.00000 418.400000
15328 2339 16109 1 149.00000 418.400000
11968 2340 15328 1 149.00000 418.400000
11969 2341 15088 1 149.00000 418.400000
12456 2342 14558 1 149.00000 418.400000
11969 2343 14558 1 149.00000 418.400000
11970 2344 12584 1 149.00000 418.400000
11970 2345 13240 1 149.00000 418.400000
11970 2346 16058 1 149.00000 418.400000
11970 2347 15089 1 149.00000 418.400000
11971 2348 13434 1 149.00000 418.400000
11971 2349 15898 1 149.00000 418.400000
11972 2350 12945 1 149.00000 418.400000
11972 2351 14297 1 149.00000 418.400000
12945 2352 15412 1 149.00000 418.400000
11972 2353 15310 1 149.00000 418.400000
11973 2354 15971 1 149.00000 418.400000
11973 2355 16137 1 149.00000 418.400000
11973 2356 12877 1 149.00000 418.400000
11973 2357 13663 1 149.00000 418.400000
11974 2358 13079 1 149.00000 418.400000
11974 2359 14074 1 149.00000 418.400000
11974 2360 14229 1 149.00000 418.400000
11974 2361 14670 1 149.00000 418.400000
11975 2362 13378 1 149.00000 418.400000
11975 2363 14712 1 149.00000 418.400000
11975 2364 14767 1 149.00000 418.400000
11975 2365 12278 1 149.00000 418.400000
11976 2366 13537 1 149.00000 418.400000
11976 2367 15232 1 149.00000 418.400000
11976 2368 13636 1 149.00000 418.400000
11976 2369 13378 1 149.00000 418.400000
11977 2370 14831 1 149.00000 418.400000
11977 2371 14442 1 149.00000 418.400000
11977 2372 13252 1 149.00000 418.400000
11977 2373 15776 1 149.00000 418.400000
11978 2374 14797 1 149.00000 418.400000
11978 2375 12557 1 149.00000 418.400000
11978 2376 14800 1 149.00000 418.400000
11978 2377 13743 1 149.00000 418.400000
11979 2378 11983 1 149.00000 418.400000
11979 2379 14253 1 149.00000 418.400000
11979 2380 13236 1 149.00000 418.400000
11979 2381 13287 1 149.00000 418.400000
11980 2382 14682 1 149.00000 418.400000
11980 2383 14304 1 149.00000 418.400000
11980 2384 16219 1 149.00000 418.400000
11980 2385 13026 1 149.00000 418.400000
11981 2386 14887 1 149.00000 418.400000
11981 2387 14104 1 149.00000 418.400000
11981 2388 12859 1 149.00000 418.400000
11981 2389 16501 1 149.00000 418.400000
11982 2390 15621 1 149.00000 418.400000
11982 2391 14149 1 149.00000 418.400000
11982 2392 15103 1 149.00000 418.400000
11982 2393 14831 1 149.00000 418.400000
11983 2394 13053 1 149.00000 418.400000
11983 2395 16367 1 149.00000 418.400000
11983 2396 12192 1 149.00000 418.400000
15818 2397 16367 1 149.00000 418.400000
11984 2398 15887 1 149.00000 418.400000
11984 2399 15164 1 149.00000 418.400000
11984 2400 12022 1 149.00000 418.400000
14033 2401 15887 1 149.00000 418.400000
11985 2402 15976 1 149.00000 418.400000
11985 2403 14789 1 149.00000 418.400000
11985 2404 12194 1 149.00000 418.400000
11985 2405 12727 1 149.00000 418.400000
11986 2406 16349 1 149.00000 418.400000
11986 2407 15736 1 149.00000 418.400000
11986 2408 13288 1 149.00000 418.400000
11986 2409 15952 1 149.00000 418.400000
11987 2410 13442 1 149.00000 418.400000
11987 2411 15772 1 149.00000 418.400000
11987 2412 13896 1 149.00000 418.400000
11988 2413 16448 1 149.00000 418.400000
11988 2414 15233 1 149.00000 418.400000
11988 2415 15091 1 149.00000 418.400000
11988 2416 14822 1 149.00000 418.400000
11989 2417 12956 1 149.00000 418.400000
11989 2418 15402 1 149.00000 418.400000
11989 2419 21591 1 149.00000 418.400000
11989 2420 20598 1 149.00000 418.400000
11990 2421 17566 1 149.00000 418.400000
11990 2422 13945 1 149.00000 418.400000
11990 2423 14096 1 149.00000 418.400000
11990 2424 15508 1 149.00000 418.400000
11991 2425 14550 1 149.00000 418.400000
11991 2426 12699 1 149.00000 418.400000
11991 2427 15574 1 149.00000 418.400000
11991 2428 12061 1 149.00000 418.400000
11703 2429 18882 1 149.00000 418.400000
16001 2430 18882 1 149.00000 418.400000
18894 2431 20406 1 149.00000 418.400000
11441 2432 13551 1 149.00000 418.400000
13551 2433 18894 1 149.00000 418.400000
11992 2434 14513 1 149.00000 418.400000
11992 2435 16221 1 149.00000 418.400000
11992 2436 12326 1 149.00000 418.400000
11992 2437 16155 1 149.00000 418.400000
11993 2438 14286 1 149.00000 418.400000
11993 2439 15178 1 149.00000 418.400000
11993 2440 14857 1 149.00000 418.400000
11993 2441 13882 1 149.00000 418.400000
11396 2442 11994 1 149.00000 418.400000
11994 2443 20070 1 149.00000 418.400000
11994 2444 13231 1 149.00000 418.400000
11994 2445 14035 1 149.00000 418.400000
11995 2446 12310 1 149.00000 418.400000
11995 2447 12688 1 149.00000 418.400000
11995 2448 14478 1 149.00000 418.400000
11995 2449 13832 1 149.00000 418.400000
14634 2450 18906 1 149.00000 418.400000
18906 2451 20550 1 149.00000 418.400000
18906 2452 22284 1 149.00000 418.400000
11996 2453 12476 1 149.00000 418.400000
11996 2454 12607 1 149.00000 418.400000
11996 2455 21810 1 149.00000 418.400000
16091 2456 18918 1 149.00000 418.400000
16154 2457 18918 1 149.00000 418.400000
11997 2458 14668 1 149.00000 418.400000
11997 2459 15222 1 149.00000 418.400000
11997 2460 12276 1 149.00000 418.400000
11997 2461 16210 1 149.00000 418.400000
16209 2462 18930 1 149.00000 418.400000
12487 2463 18930 1 149.00000 418.400000
11998 2464 13521 1 149.00000 418.400000
11998 2465 13842 1 149.00000 418.400000
11998 2466 16365 1 149.00000 418.400000
11998 2467 13616 1 149.00000 418.400000
11999 2468 12013 1 149.00000 418.400000
11999 2469 21834 1 149.00000 418.400000
11999 2470 13389 1 149.00000 418.400000
11999 2471 14921 1 149.00000 418.400000
12000 2472 15198 1 149.00000 418.400000
12000 2473 14422 1 149.00000 418.400000
12000 2474 15120 1 149.00000 418.400000
12000 2475 12903 1 149.00000 418.400000
12001 2476 15581 1 149.00000 418.400000
12001 2477 16375 1 149.00000 418.400000
12001 2478 15369 1 149.00000 418.400000
12377 2479 16375 1 149.00000 418.400000
12002 2480 12980 1 149.00000 418.400000
12002 2481 16171 1 149.00000 418.400000
12002 2482 12659 1 149.00000 418.400000
12566 2483 18942 1 149.00000 418.400000
13871 2484 18942 1 149.00000 418.400000
14583 2485 18942 1 149.00000 418.400000
12003 2486 15491 1 149.00000 418.400000
12003 2487 12569 1 149.00000 418.400000
12003 2488 12146 1 149.00000 418.400000
12003 2489 14347 1 149.00000 418.400000
21507 2490 22140 1 149.00000 418.400000
15001 2491 15706 1 149.00000 418.400000
15001 2492 21507 1 149.00000 418.400000
18954 2493 22122 1 149.00000 418.400000
16726 2494 18954 1 149.00000 418.400000
18954 2495 21150 1 149.00000 418.400000
12004 2496 12039 1 149.00000 418.400000
12004 2497 12642 1 149.00000 418.400000
12004 2498 17356 1 149.00000 418.400000
12004 2499 21867 1 149.00000 418.400000
18966 2500 22257 1 149.00000 418.400000
13608 2501 18966 1 149.00000 418.400000
12005 2502 14862 1 149.00000 418.400000
12005 2503 14405 1 149.00000 418.400000
12005 2504 12151 1 149.00000 418.400000
14352 2505 18978 1 149.00000 418.400000
12125 2506 18978 1 149.00000 418.400000
14352 2507 15717 1 149.00000 418.400000
12006 2508 14506 1 149.00000 418.400000
12006 2509 15573 1 149.00000 418.400000
12006 2510 13383 1 149.00000 418.400000
12006 2511 16292 1 149.00000 418.400000
12007 2512 14055 1 149.00000 418.400000
12007 2513 12268 1 149.00000 418.400000
12007 2514 12843 1 149.00000 418.400000
12007 2515 13229 1 149.00000 418.400000
12008 2516 15657 1 149.00000 418.400000
12008 2517 19854 1 149.00000 418.400000
12008 2518 15972 1 149.00000 418.400000
12008 2519 15876 1 149.00000 418.400000
12009 2520 16294 1 149.00000 418.400000
12009 2521 13972 1 149.00000 418.400000
12009 2522 16128 1 149.00000 418.400000
12009 2523 15792 1 149.00000 418.400000
12010 2524 12359 1 149.00000 418.400000
12010 2525 14339 1 149.00000 418.400000
12010 2526 12417 1 149.00000 418.400000
12010 2527 12866 1 149.00000 418.400000
12011 2528 15126 1 149.00000 418.400000
12011 2529 12547 1 149.00000 418.400000
12011 2530 14062 1 149.00000 418.400000
12011 2531 12436 1 149.00000 418.400000
12012 2532 15085 1 149.00000 418.400000
12012 2533 14471 1 149.00000 418.400000
12012 2534 14222 1 149.00000 418.400000
12012 2535 15073 1 149.00000 418.400000
12013 2536 15957 1 149.00000 418.400000
12013 2537 15618 1 149.00000 418.400000
12013 2538 16332 1 149.00000 418.400000
12014 2539 16045 1 149.00000 418.400000
12014 2540 21234 1 149.00000 418.400000
12014 2541 13594 1 149.00000 418.400000
12015 2542 12616 1 149.00000 418.400000
12015 2543 15258 1 149.00000 418.400000
12015 2544 15333 1 149.00000 418.400000
12016 2545 14368 1 149.00000 418.400000
12016 2546 15800 1 149.00000 418.400000
12016 2547 13582 1 149.00000 418.400000
12016 2548 15676 1 149.00000 418.400000
12017 2549 14769 1 149.00000 418.400000
12017 2550 12107 1 149.00000 418.400000
12017 2551 13422 1 149.00000 418.400000
12017 2552 15007 1 149.00000 418.400000
12018 2553 13303 1 149.00000 418.400000
12018 2554 13353 1 149.00000 418.400000
12018 2555 14942 1 149.00000 418.400000
12018 2556 16435 1 149.00000 418.400000
16280 2557 20934 1 149.00000 418.400000
15591 2558 18990 1 149.00000 418.400000
12113 2559 18990 1 149.00000 418.400000
18990 2560 20934 1 149.00000 418.400000
12019 2561 12627 1 149.00000 418.400000
12019 2562 13585 1 149.00000 418.400000
12019 2563 13252 1 149.00000 418.400000
12020 2564 16108 1 149.00000 418.400000
12020 2565 12652 1 149.00000 418.400000
12020 2566 14867 1 149.00000 418.400000
12021 2567 13518 1 149.00000 418.400000
12021 2568 22026 1 149.00000 418.400000
12021 2569 15593 1 149.00000 418.400000
12021 2570 14541 1 149.00000 418.400000
12022 2571 15575 1 149.00000 418.400000
12022 2572 12358 1 149.00000 418.400000
12358 2573 15026 1 149.00000 418.400000
11551 2574 12023 1 149.00000 418.400000
12023 2575 13340 1 149.00000 418.400000
12023 2576 13756 1 149.00000 418.400000
12023 2577 12907 1 149.00000 418.400000
12024 2578 15143 1 149.00000 418.400000
12024 2579 14247 1 149.00000 418.400000
12024 2580 13611 1 149.00000 418.400000
12025 2581 13838 1 149.00000 418.400000
12025 2582 15017 1 149.00000 418.400000
12059 2583 15216 1 149.00000 418.400000
12026 2584 12324 1 149.00000 418.400000
12026 2585 15216 1 149.00000 418.400000
12026 2586 13032 1 149.00000 418.400000
19002 2587 21630 1 149.00000 418.400000
15419 2588 19002 1 149.00000 418.400000
12027 2589 13579 1 149.00000 418.400000
12027 2590 12486 1 149.00000 418.400000
12027 2591 17566 1 149.00000 418.400000
12028 2592 12789 1 149.00000 418.400000
12028 2593 14430 1 149.00000 418.400000
12028 2594 12644 1 149.00000 418.400000
12029 2595 16403 1 149.00000 418.400000
12029 2596 14720 1 149.00000 418.400000
12029 2597 12157 1 149.00000 418.400000
12030 2598 16416 1 149.00000 418.400000
12030 2599 15978 1 149.00000 418.400000
12030 2600 13340 1 149.00000 418.400000
12030 2601 12745 1 149.00000 418.400000
12031 2602 15898 1 149.00000 418.400000
12031 2603 14739 1 149.00000 418.400000
12032 2604 19050 1 149.00000 418.400000
16908 2605 19050 1 149.00000 418.400000
12033 2606 16465 1 149.00000 418.400000
14747 2607 16465 1 149.00000 418.400000
12033 2608 16383 1 149.00000 418.400000
12033 2609 15642 1 149.00000 418.400000
12034 2610 16182 1 149.00000 418.400000
12034 2611 12995 1 149.00000 418.400000
12034 2612 13829 1 149.00000 418.400000
12035 2613 12634 1 149.00000 418.400000
12035 2614 12597 1 149.00000 418.400000
12035 2615 13172 1 149.00000 418.400000
12036 2616 13130 1 149.00000 418.400000
12036 2617 13394 1 149.00000 418.400000
12036 2618 14460 1 149.00000 418.400000
12037 2619 16340 1 149.00000 418.400000
12037 2620 20802 1 149.00000 418.400000
12037 2621 16024 1 149.00000 418.400000
12037 2622 14133 1 149.00000 418.400000
12126 2623 19014 1 149.00000 418.400000
17622 2624 19014 1 149.00000 418.400000
12883 2625 13307 1 149.00000 418.400000
12038 2626 15164 1 149.00000 418.400000
12038 2627 13307 1 149.00000 418.400000
12038 2628 13269 1 149.00000 418.400000
12039 2629 15846 1 149.00000 418.400000
12039 2630 15138 1 149.00000 418.400000
12039 2631 13063 1 149.00000 418.400000
12040 2632 15889 1 149.00000 418.400000
12040 2633 19878 1 149.00000 418.400000
12040 2634 16377 1 149.00000 418.400000
12040 2635 15647 1 149.00000 418.400000
12041 2636 15716 1 149.00000 418.400000
12041 2637 13380 1 149.00000 418.400000
12041 2638 15258 1 149.00000 418.400000
12041 2639 15907 1 149.00000 418.400000
12042 2640 13330 1 149.00000 418.400000
12042 2641 15707 1 149.00000 418.400000
12042 2642 13767 1 149.00000 418.400000
12042 2643 13289 1 149.00000 418.400000
12043 2644 16512 1 149.00000 418.400000
12043 2645 13372 1 149.00000 418.400000
12043 2646 12661 1 149.00000 418.400000
12044 2647 13412 1 149.00000 418.400000
12044 2648 16322 1 149.00000 418.400000
15671 2649 16322 1 149.00000 418.400000
12044 2650 14256 1 149.00000 418.400000
12045 2651 21474 1 149.00000 418.400000
12045 2652 22347 1 149.00000 418.400000
12045 2653 16459 1 149.00000 418.400000
12046 2654 13535 1 149.00000 418.400000
12046 2655 14139 1 149.00000 418.400000
12046 2656 14789 1 149.00000 418.400000
12046 2657 16412 1 149.00000 418.400000
12047 2658 14847 1 149.00000 418.400000
12047 2659 12182 1 149.00000 418.400000
12048 2660 13399 1 149.00000 418.400000
12048 2661 13368 1 149.00000 418.400000
12048 2662 13668 1 149.00000 418.400000
12048 2663 16508 1 149.00000 418.400000
12049 2664 14440 1 149.00000 418.400000
12049 2665 13855 1 149.00000 418.400000
12050 2666 14267 1 149.00000 418.400000
12050 2667 21942 1 149.00000 418.400000
12051 2668 14506 1 149.00000 418.400000
12051 2669 14421 1 149.00000 418.400000
12051 2670 12874 1 149.00000 418.400000
12051 2671 12271 1 149.00000 418.400000
12052 2672 13221 1 149.00000 418.400000
12052 2673 13396 1 149.00000 418.400000
12052 2674 14147 1 149.00000 418.400000
12052 2675 12170 1 149.00000 418.400000
12053 2676 12700 1 149.00000 418.400000
12053 2677 15036 1 149.00000 418.400000
12053 2678 16199 1 149.00000 418.400000
12053 2679 13932 1 149.00000 418.400000
12054 2680 13414 1 149.00000 418.400000
12054 2681 13498 1 149.00000 418.400000
12054 2682 15703 1 149.00000 418.400000
14647 2683 15703 1 149.00000 418.400000
12055 2684 19530 1 149.00000 418.400000
12055 2685 12636 1 149.00000 418.400000
12055 2686 13213 1 149.00000 418.400000
12055 2687 16085 1 149.00000 418.400000
12056 2688 15669 1 149.00000 418.400000
12056 2689 15702 1 149.00000 418.400000
12056 2690 21474 1 149.00000 418.400000
12056 2691 13883 1 149.00000 418.400000
12057 2692 15288 1 149.00000 418.400000
12057 2693 14225 1 149.00000 418.400000
12057 2694 16241 1 149.00000 418.400000
12057 2695 12855 1 149.00000 418.400000
12058 2696 13244 1 149.00000 418.400000
12058 2697 12349 1 149.00000 418.400000
12058 2698 14892 1 149.00000 418.400000
12059 2699 15399 1 149.00000 418.400000
12059 2700 21912 1 149.00000 418.400000
12059 2701 13559 1 149.00000 418.400000
12060 2702 15668 1 149.00000 418.400000
12060 2703 14295 1 149.00000 418.400000
12060 2704 13537 1 149.00000 418.400000
12060 2705 14248 1 149.00000 418.400000
12061 2706 13247 1 149.00000 418.400000
12061 2707 12221 1 149.00000 418.400000
12061 2708 16154 1 149.00000 418.400000
12062 2709 13223 1 149.00000 418.400000
12062 2710 16270 1 149.00000 418.400000
12062 2711 16300 1 149.00000 418.400000
12062 2712 13103 1 149.00000 418.400000
12063 2713 13798 1 149.00000 418.400000
12063 2714 13561 1 149.00000 418.400000
12063 2715 12453 1 149.00000 418.400000
12063 2716 20382 1 149.00000 418.400000
12064 2717 16411 1 149.00000 418.400000
12064 2718 14624 1 149.00000 418.400000
12064 2719 13154 1 149.00000 418.400000
12064 2720 14897 1 149.00000 418.400000
12065 2721 16518 1 149.00000 418.400000
12065 2722 14492 1 149.00000 418.400000
12065 2723 12381 1 149.00000 418.400000
12065 2724 16036 1 149.00000 418.400000
12066 2725 16445 1 149.00000 418.400000
12066 2726 13651 1 149.00000 418.400000
12066 2727 15255 1 149.00000 418.400000
12066 2728 13388 1 149.00000 418.400000
15549 2729 19026 1 149.00000 418.400000
19026 2730 20982 1 149.00000 418.400000
13194 2731 19026 1 149.00000 418.400000
12067 2732 12671 1 149.00000 418.400000
12067 2733 16810 1 149.00000 418.400000
12067 2734 14603 1 149.00000 418.400000
12068 2735 13147 1 149.00000 418.400000
12068 2736 13533 1 149.00000 418.400000
12068 2737 15926 1 149.00000 418.400000
12069 2738 12280 1 149.00000 418.400000
12069 2739 13646 1 149.00000 418.400000
12069 2740 14807 1 149.00000 418.400000
12069 2741 14773 1 149.00000 418.400000
12070 2742 16003 1 149.00000 418.400000
12070 2743 16476 1 149.00000 418.400000
12070 2744 15657 1 149.00000 418.400000
12070 2745 12627 1 149.00000 418.400000
12071 2746 21525 1 149.00000 418.400000
12071 2747 21930 1 149.00000 418.400000
12071 2748 16462 1 149.00000 418.400000
12072 2749 13016 1 149.00000 418.400000
12072 2750 14391 1 149.00000 418.400000
12072 2751 15715 1 149.00000 418.400000
12072 2752 12693 1 149.00000 418.400000
12073 2753 14087 1 149.00000 418.400000
14588 2754 15639 1 149.00000 418.400000
12073 2755 14633 1 149.00000 418.400000
12073 2756 14588 1 149.00000 418.400000
12074 2757 12470 1 149.00000 418.400000
12074 2758 13110 1 149.00000 418.400000
12074 2759 13624 1 149.00000 418.400000
12074 2760 13392 1 149.00000 418.400000
12075 2761 15190 1 149.00000 418.400000
12075 2762 14567 1 149.00000 418.400000
12075 2763 14172 1 149.00000 418.400000
12076 2764 12827 1 149.00000 418.400000
12076 2765 15424 1 149.00000 418.400000
12076 2766 14015 1 149.00000 418.400000
12076 2767 14473 1 149.00000 418.400000
12077 2768 15852 1 149.00000 418.400000
12077 2769 15777 1 149.00000 418.400000
12077 2770 12122 1 149.00000 418.400000
12078 2771 16454 1 149.00000 418.400000
13688 2772 14152 1 149.00000 418.400000
12078 2773 13688 1 149.00000 418.400000
12078 2774 14967 1 149.00000 418.400000
12079 2775 14956 1 149.00000 418.400000
12079 2776 15477 1 149.00000 418.400000
12080 2777 15473 1 149.00000 418.400000
12080 2778 12550 1 149.00000 418.400000
12080 2779 15666 1 149.00000 418.400000
12081 2780 22389 1 149.00000 418.400000
12081 2781 13348 1 149.00000 418.400000
12081 2782 14386 1 149.00000 418.400000
12081 2783 14480 1 149.00000 418.400000
12082 2784 15606 1 149.00000 418.400000
12082 2785 14251 1 149.00000 418.400000
12082 2786 14167 1 149.00000 418.400000
12082 2787 13266 1 149.00000 418.400000
12083 2788 13956 1 149.00000 418.400000
12083 2789 12816 1 149.00000 418.400000
12083 2790 15769 1 149.00000 418.400000
12084 2791 12673 1 149.00000 418.400000
12084 2792 14002 1 149.00000 418.400000
12673 2793 12987 1 149.00000 418.400000
12085 2794 16520 1 149.00000 418.400000
12085 2795 15450 1 149.00000 418.400000
12085 2796 14913 1 149.00000 418.400000
13973 2797 15450 1 149.00000 418.400000
12086 2798 16140 1 149.00000 418.400000
12086 2799 15769 1 149.00000 418.400000
12087 2800 14264 1 149.00000 418.400000
12087 2801 14962 1 149.00000 418.400000
12970 2802 14264 1 149.00000 418.400000
12088 2803 14491 1 149.00000 418.400000
12088 2804 14790 1 149.00000 418.400000
12088 2805 14460 1 149.00000 418.400000
12089 2806 12767 1 149.00000 418.400000
12089 2807 14220 1 149.00000 418.400000
12089 2808 15688 1 149.00000 418.400000
12089 2809 13075 1 149.00000 418.400000
12090 2810 14101 1 149.00000 418.400000
12090 2811 14302 1 149.00000 418.400000
12090 2812 15428 1 149.00000 418.400000
12090 2813 15006 1 149.00000 418.400000
12091 2814 14829 1 149.00000 418.400000
13788 2815 13847 1 149.00000 418.400000
12091 2816 15862 1 149.00000 418.400000
11458 2817 13788 1 149.00000 418.400000
12092 2818 12362 1 149.00000 418.400000
12092 2819 13930 1 149.00000 418.400000
12092 2820 15999 1 149.00000 418.400000
12092 2821 13586 1 149.00000 418.400000
12093 2822 15851 1 149.00000 418.400000
12093 2823 16506 1 149.00000 418.400000
12093 2824 16071 1 149.00000 418.400000
12094 2825 15569 1 149.00000 418.400000
12094 2826 16414 1 149.00000 418.400000
12094 2827 14343 1 149.00000 418.400000
12094 2828 16378 1 149.00000 418.400000
12095 2829 16197 1 149.00000 418.400000
12095 2830 16027 1 149.00000 418.400000
12095 2831 13958 1 149.00000 418.400000
12096 2832 12268 1 149.00000 418.400000
12096 2833 12639 1 149.00000 418.400000
12097 2834 12124 1 149.00000 418.400000
12097 2835 14594 1 149.00000 418.400000
12097 2836 12524 1 149.00000 418.400000
12098 2837 15394 1 149.00000 418.400000
12098 2838 15544 1 149.00000 418.400000
12098 2839 17916 1 149.00000 418.400000
12099 2840 12989 1 149.00000 418.400000
12099 2841 14664 1 149.00000 418.400000
12099 2842 12979 1 149.00000 418.400000
12099 2843 12607 1 149.00000 418.400000
12100 2844 14139 1 149.00000 418.400000
12100 2845 12327 1 149.00000 418.400000
12100 2846 14606 1 149.00000 418.400000
12100 2847 13510 1 149.00000 418.400000
12101 2848 13880 1 149.00000 418.400000
12101 2849 15174 1 149.00000 418.400000
12101 2850 12299 1 149.00000 418.400000
12102 2851 12845 1 149.00000 418.400000
12102 2852 12784 1 149.00000 418.400000
12102 2853 14105 1 149.00000 418.400000
12103 2854 15873 1 149.00000 418.400000
12103 2855 13830 1 149.00000 418.400000
12103 2856 14108 1 149.00000 418.400000
12104 2857 12337 1 149.00000 418.400000
12105 2858 13679 1 149.00000 418.400000
12105 2859 13449 1 149.00000 418.400000
12105 2860 15298 1 149.00000 418.400000
13679 2861 15183 1 149.00000 418.400000
12106 2862 13645 1 149.00000 418.400000
12106 2863 16297 1 149.00000 418.400000
12107 2864 12609 1 149.00000 418.400000
12107 2865 12689 1 149.00000 418.400000
12689 2866 15485 1 149.00000 418.400000
12108 2867 15198 1 149.00000 418.400000
12108 2868 16222 1 149.00000 418.400000
12108 2869 14357 1 149.00000 418.400000
12108 2870 13433 1 149.00000 418.400000
12109 2871 15726 1 149.00000 418.400000
12109 2872 12895 1 149.00000 418.400000
12109 2873 14208 1 149.00000 418.400000
12110 2874 14129 1 149.00000 418.400000
12110 2875 13648 1 149.00000 418.400000
12110 2876 14254 1 149.00000 418.400000
12111 2877 13809 1 149.00000 418.400000
12111 2878 12179 1 149.00000 418.400000
12111 2879 12582 1 149.00000 418.400000
12112 2880 12207 1 149.00000 418.400000
12112 2881 14346 1 149.00000 418.400000
12112 2882 12940 1 149.00000 418.400000
12112 2883 12738 1 149.00000 418.400000
12113 2884 22104 1 149.00000 418.400000
12113 2885 13479 1 149.00000 418.400000
12114 2886 15543 1 149.00000 418.400000
12114 2887 16482 1 149.00000 418.400000
12114 2888 13917 1 149.00000 418.400000
12115 2889 14508 1 149.00000 418.400000
12115 2890 21918 1 149.00000 418.400000
12115 2891 14709 1 149.00000 418.400000
12116 2892 13197 1 149.00000 418.400000
12116 2893 18434 1 149.00000 418.400000
12406 2894 14564 1 149.00000 418.400000
12116 2895 14564 1 149.00000 418.400000
12117 2896 13085 1 149.00000 418.400000
12117 2897 13118 1 149.00000 418.400000
12117 2898 14937 1 149.00000 418.400000
12117 2899 21594 1 149.00000 418.400000
12118 2900 14995 1 149.00000 418.400000
12118 2901 13498 1 149.00000 418.400000
12118 2902 14825 1 149.00000 418.400000
12119 2903 13043 1 149.00000 418.400000
12119 2904 16023 1 149.00000 418.400000
12119 2905 15606 1 149.00000 418.400000
12120 2906 13770 1 149.00000 418.400000
13391 2907 16081 1 149.00000 418.400000
12120 2908 16081 1 149.00000 418.400000
12121 2909 15074 1 149.00000 418.400000
12121 2910 14369 1 149.00000 418.400000
12121 2911 14379 1 149.00000 418.400000
12122 2912 15033 1 149.00000 418.400000
12122 2913 14892 1 149.00000 418.400000
12122 2914 22414 1 149.00000 418.400000
12123 2915 16073 1 149.00000 418.400000
12123 2916 15617 1 149.00000 418.400000
12123 2917 12601 1 149.00000 418.400000
12124 2918 15015 1 149.00000 418.400000
12124 2919 12246 1 149.00000 418.400000
12124 2920 16483 1 149.00000 418.400000
12125 2921 22257 1 149.00000 418.400000
12125 2922 14626 1 149.00000 418.400000
12127 2923 16510 1 149.00000 418.400000
12127 2924 15576 1 149.00000 418.400000
12127 2925 16308 1 149.00000 418.400000
12127 2926 15994 1 149.00000 418.400000
12128 2927 15749 1 149.00000 418.400000
12128 2928 16280 1 149.00000 418.400000
12128 2929 16096 1 149.00000 418.400000
12128 2930 15527 1 149.00000 418.400000
12129 2931 14102 1 149.00000 418.400000
12129 2932 12969 1 149.00000 418.400000
12129 2933 13646 1 149.00000 418.400000
12130 2934 16338 1 149.00000 418.400000
12130 2935 12182 1 149.00000 418.400000
12130 2936 14134 1 149.00000 418.400000
12131 2937 12776 1 149.00000 418.400000
12131 2938 14979 1 149.00000 418.400000
12131 2939 14957 1 149.00000 418.400000
12132 2940 16345 1 149.00000 418.400000
12132 2941 12451 1 149.00000 418.400000
11621 2942 12132 1 149.00000 418.400000
12451 2943 14109 1 149.00000 418.400000
13909 2944 19038 1 149.00000 418.400000
14753 2945 19038 1 149.00000 418.400000
16001 2946 19038 1 149.00000 418.400000
12133 2947 15501 1 149.00000 418.400000
12133 2948 13309 1 149.00000 418.400000
12133 2949 15658 1 149.00000 418.400000
12133 2950 16240 1 149.00000 418.400000
16309 2951 16397 1 149.00000 418.400000
16309 2952 21258 1 149.00000 418.400000
12134 2953 16309 1 149.00000 418.400000
14249 2954 16309 1 149.00000 418.400000
12135 2955 14948 1 149.00000 418.400000
12135 2956 16208 1 149.00000 418.400000
12135 2957 13877 1 149.00000 418.400000
12136 2958 15179 1 149.00000 418.400000
12136 2959 15554 1 149.00000 418.400000
12136 2960 14591 1 149.00000 418.400000
12136 2961 15843 1 149.00000 418.400000
12137 2962 13238 1 149.00000 418.400000
12137 2963 16152 1 149.00000 418.400000
12137 2964 13124 1 149.00000 418.400000
12137 2965 15482 1 149.00000 418.400000
12138 2966 13682 1 149.00000 418.400000
12138 2967 13161 1 149.00000 418.400000
12138 2968 14525 1 149.00000 418.400000
12138 2969 15767 1 149.00000 418.400000
12139 2970 15683 1 149.00000 418.400000
12139 2971 12669 1 149.00000 418.400000
12366 2972 12669 1 149.00000 418.400000
12139 2973 14021 1 149.00000 418.400000
12140 2974 12379 1 149.00000 418.400000
12140 2975 13282 1 149.00000 418.400000
12140 2976 13663 1 149.00000 418.400000
12140 2977 14377 1 149.00000 418.400000
12141 2978 14431 1 149.00000 418.400000
12141 2979 13058 1 149.00000 418.400000
12141 2980 16374 1 149.00000 418.400000
12141 2981 16312 1 149.00000 418.400000
12142 2982 13822 1 149.00000 418.400000
12142 2983 13090 1 149.00000 418.400000
12142 2984 13331 1 149.00000 418.400000
12142 2985 12779 1 149.00000 418.400000
12143 2986 17328 1 149.00000 418.400000
12143 2987 14975 1 149.00000 418.400000
12143 2988 14732 1 149.00000 418.400000
12032 2989 16401 1 149.00000 418.400000
12032 2990 17790 1 149.00000 418.400000
14529 2991 19050 1 149.00000 418.400000
15123 2992 15660 1 149.00000 418.400000
12408 2993 15660 1 149.00000 418.400000
12781 2994 15660 1 149.00000 418.400000
15660 2995 19062 1 149.00000 418.400000
12144 2996 22014 1 149.00000 418.400000
12144 2997 12761 1 149.00000 418.400000
12145 2998 14895 1 149.00000 418.400000
12145 2999 16408 1 149.00000 418.400000
12145 3000 15120 1 149.00000 418.400000
12145 3001 12664 1 149.00000 418.400000
12146 3002 12305 1 149.00000 418.400000
12146 3003 14759 1 149.00000 418.400000
12147 3004 13823 1 149.00000 418.400000
12147 3005 13001 1 149.00000 418.400000
12147 3006 14169 1 149.00000 418.400000
12148 3007 16141 1 149.00000 418.400000
13689 3008 13865 1 149.00000 418.400000
12148 3009 14418 1 149.00000 418.400000
12148 3010 13865 1 149.00000 418.400000
12150 3011 16511 1 149.00000 418.400000
12150 3012 13354 1 149.00000 418.400000
12150 3013 22469 1 149.00000 418.400000
12150 3014 15848 1 149.00000 418.400000
12151 3015 12693 1 149.00000 418.400000
12151 3016 16434 1 149.00000 418.400000
12151 3017 14294 1 149.00000 418.400000
12152 3018 14372 1 149.00000 418.400000
12152 3019 14902 1 149.00000 418.400000
12152 3020 14196 1 149.00000 418.400000
12152 3021 15990 1 149.00000 418.400000
12153 3022 14094 1 149.00000 418.400000
12153 3023 12265 1 149.00000 418.400000
12153 3024 15261 1 149.00000 418.400000
12154 3025 13887 1 149.00000 418.400000
12154 3026 12444 1 149.00000 418.400000
12154 3027 16315 1 149.00000 418.400000
12154 3028 13878 1 149.00000 418.400000
12155 3029 15763 1 149.00000 418.400000
12155 3030 15511 1 149.00000 418.400000
12155 3031 12600 1 149.00000 418.400000
12155 3032 12330 1 149.00000 418.400000
12156 3033 15924 1 149.00000 418.400000
12156 3034 20202 1 149.00000 418.400000
12156 3035 21552 1 149.00000 418.400000
12157 3036 15541 1 149.00000 418.400000
12157 3037 12862 1 149.00000 418.400000
12157 3038 12248 1 149.00000 418.400000
12158 3039 18014 1 149.00000 418.400000
12158 3040 14851 1 149.00000 418.400000
12158 3041 18224 1 149.00000 418.400000
12159 3042 14522 1 149.00000 418.400000
12160 3043 15810 1 149.00000 418.400000
12160 3044 15054 1 149.00000 418.400000
12160 3045 12954 1 149.00000 418.400000
15205 3046 15810 1 149.00000 418.400000
16428 3047 19086 1 149.00000 418.400000
16466 3048 19086 1 149.00000 418.400000
12161 3049 14220 1 149.00000 418.400000
12161 3050 15687 1 149.00000 418.400000
12161 3051 13010 1 149.00000 418.400000
12161 3052 16198 1 149.00000 418.400000
12162 3053 15550 1 149.00000 418.400000
11381 3054 12162 1 149.00000 418.400000
12162 3055 15063 1 149.00000 418.400000
11790 3056 12905 1 149.00000 418.400000
11641 3057 15134 1 149.00000 418.400000
12164 3058 14262 1 149.00000 418.400000
12164 3059 16044 1 149.00000 418.400000
12164 3060 15779 1 149.00000 418.400000
12165 3061 13246 1 149.00000 418.400000
12165 3062 16335 1 149.00000 418.400000
12166 3063 12383 1 149.00000 418.400000
12166 3064 13851 1 149.00000 418.400000
12166 3065 13691 1 149.00000 418.400000
12166 3066 16235 1 149.00000 418.400000
12167 3067 14170 1 149.00000 418.400000
12167 3068 14600 1 149.00000 418.400000
12167 3069 16483 1 149.00000 418.400000
12168 3070 14447 1 149.00000 418.400000
12168 3071 22047 1 149.00000 418.400000
12168 3072 14980 1 149.00000 418.400000
12168 3073 16297 1 149.00000 418.400000
12169 3074 12985 1 149.00000 418.400000
12169 3075 15860 1 149.00000 418.400000
12169 3076 14036 1 149.00000 418.400000
12170 3077 13480 1 149.00000 418.400000
12170 3078 16092 1 149.00000 418.400000
12170 3079 15483 1 149.00000 418.400000
12171 3080 15938 1 149.00000 418.400000
12171 3081 16375 1 149.00000 418.400000
12172 3082 16104 1 149.00000 418.400000
12172 3083 16200 1 149.00000 418.400000
13492 3084 14759 1 149.00000 418.400000
12173 3085 15933 1 149.00000 418.400000
12173 3086 13492 1 149.00000 418.400000
12174 3087 13621 1 149.00000 418.400000
12174 3088 12542 1 149.00000 418.400000
12174 3089 14627 1 149.00000 418.400000
12175 3090 13157 1 149.00000 418.400000
12175 3091 12936 1 149.00000 418.400000
12175 3092 14095 1 149.00000 418.400000
12175 3093 12215 1 149.00000 418.400000
12176 3094 14677 1 149.00000 418.400000
12176 3095 12783 1 149.00000 418.400000
12176 3096 14775 1 149.00000 418.400000
12177 3097 13685 1 149.00000 418.400000
12177 3098 13775 1 149.00000 418.400000
12177 3099 15723 1 149.00000 418.400000
12178 3100 15972 1 149.00000 418.400000
12178 3101 21768 1 149.00000 418.400000
12179 3102 14442 1 149.00000 418.400000
12179 3103 12939 1 149.00000 418.400000
14680 3104 19098 1 149.00000 418.400000
19098 3105 22011 1 149.00000 418.400000
19098 3106 21528 1 149.00000 418.400000
15316 3107 16146 1 149.00000 418.400000
12511 3108 15316 1 149.00000 418.400000
19110 3109 19146 1 149.00000 418.400000
12180 3110 16283 1 149.00000 418.400000
12180 3111 13449 1 149.00000 418.400000
12180 3112 14210 1 149.00000 418.400000
12181 3113 14127 1 149.00000 418.400000
12181 3114 16404 1 149.00000 418.400000
12181 3115 12877 1 149.00000 418.400000
12181 3116 16327 1 149.00000 418.400000
12182 3117 13156 1 149.00000 418.400000
12182 3118 14130 1 149.00000 418.400000
12183 3119 21831 1 149.00000 418.400000
12183 3120 14771 1 149.00000 418.400000
12183 3121 15318 1 149.00000 418.400000
12184 3122 14745 1 149.00000 418.400000
12184 3123 14879 1 149.00000 418.400000
12184 3124 15235 1 149.00000 418.400000
12184 3125 15335 1 149.00000 418.400000
12185 3126 14533 1 149.00000 418.400000
12185 3127 15583 1 149.00000 418.400000
12185 3128 16340 1 149.00000 418.400000
12185 3129 16420 1 149.00000 418.400000
12186 3130 14450 1 149.00000 418.400000
12186 3131 13545 1 149.00000 418.400000
12186 3132 12265 1 149.00000 418.400000
14029 3133 15587 1 149.00000 418.400000
12187 3134 14029 1 149.00000 418.400000
14029 3135 15075 1 149.00000 418.400000
12187 3136 15497 1 149.00000 418.400000
12188 3137 15872 1 149.00000 418.400000
12188 3138 15111 1 149.00000 418.400000
12188 3139 13468 1 149.00000 418.400000
12189 3140 16074 1 149.00000 418.400000
12189 3141 15293 1 149.00000 418.400000
12189 3142 13079 1 149.00000 418.400000
12189 3143 13893 1 149.00000 418.400000
12190 3144 14037 1 149.00000 418.400000
12190 3145 14770 1 149.00000 418.400000
12190 3146 13327 1 149.00000 418.400000
15578 3147 19122 1 149.00000 418.400000
19134 3148 21498 1 149.00000 418.400000
15778 3149 19134 1 149.00000 418.400000
12191 3150 13877 1 149.00000 418.400000
12191 3151 13317 1 149.00000 418.400000
12191 3152 12237 1 149.00000 418.400000
12191 3153 13005 1 149.00000 418.400000
12192 3154 15555 1 149.00000 418.400000
12192 3155 16033 1 149.00000 418.400000
12192 3156 13236 1 149.00000 418.400000
12193 3157 13841 1 149.00000 418.400000
12193 3158 15727 1 149.00000 418.400000
12193 3159 16048 1 149.00000 418.400000
12193 3160 14997 1 149.00000 418.400000
16481 3161 19146 1 149.00000 418.400000
12194 3162 16284 1 149.00000 418.400000
12194 3163 14952 1 149.00000 418.400000
12194 3164 12521 1 149.00000 418.400000
12195 3165 13799 1 149.00000 418.400000
12195 3166 13768 1 149.00000 418.400000
12195 3167 12231 1 149.00000 418.400000
12195 3168 12472 1 149.00000 418.400000
12196 3169 14707 1 149.00000 418.400000
12196 3170 14910 1 149.00000 418.400000
12196 3171 12965 1 149.00000 418.400000
12196 3172 12974 1 149.00000 418.400000
12197 3173 13645 1 149.00000 418.400000
12197 3174 14260 1 149.00000 418.400000
12197 3175 12955 1 149.00000 418.400000
12197 3176 12891 1 149.00000 418.400000
12198 3177 13471 1 149.00000 418.400000
12198 3178 14858 1 149.00000 418.400000
12198 3179 13835 1 149.00000 418.400000
12198 3180 12773 1 149.00000 418.400000
12199 3181 13358 1 149.00000 418.400000
12199 3182 13548 1 149.00000 418.400000
12199 3183 15370 1 149.00000 418.400000
11342 3184 17370 1 149.00000 418.400000
12200 3185 16192 1 149.00000 418.400000
12200 3186 12910 1 149.00000 418.400000
12200 3187 14382 1 149.00000 418.400000
14627 3188 19158 1 149.00000 418.400000
19158 3189 21549 1 149.00000 418.400000
12201 3190 14268 1 149.00000 418.400000
12201 3191 13752 1 149.00000 418.400000
12201 3192 15831 1 149.00000 418.400000
12201 3193 12450 1 149.00000 418.400000
12202 3194 16094 1 149.00000 418.400000
12202 3195 22290 1 149.00000 418.400000
12372 3196 16094 1 149.00000 418.400000
12202 3197 13956 1 149.00000 418.400000
12203 3198 16321 1 149.00000 418.400000
12203 3199 13346 1 149.00000 418.400000
12203 3200 13528 1 149.00000 418.400000
12203 3201 16520 1 149.00000 418.400000
12204 3202 13802 1 149.00000 418.400000
12204 3203 13468 1 149.00000 418.400000
12204 3204 14893 1 149.00000 418.400000
12204 3205 14335 1 149.00000 418.400000
12205 3206 15862 1 149.00000 418.400000
12205 3207 18364 1 149.00000 418.400000
12205 3208 14087 1 149.00000 418.400000
12206 3209 15083 1 149.00000 418.400000
12206 3210 14190 1 149.00000 418.400000
12206 3211 15722 1 149.00000 418.400000
12206 3212 15099 1 149.00000 418.400000
12207 3213 12258 1 149.00000 418.400000
12288 3214 14885 1 149.00000 418.400000
12207 3215 12288 1 149.00000 418.400000
12208 3216 13012 1 149.00000 418.400000
12208 3217 12221 1 149.00000 418.400000
12208 3218 14550 1 149.00000 418.400000
12209 3219 19674 1 149.00000 418.400000
12209 3220 21771 1 149.00000 418.400000
12209 3221 18420 1 149.00000 418.400000
12209 3222 12221 1 149.00000 418.400000
19170 3223 21741 1 149.00000 418.400000
15892 3224 19170 1 149.00000 418.400000
12210 3225 16190 1 149.00000 418.400000
12210 3226 14099 1 149.00000 418.400000
12210 3227 13178 1 149.00000 418.400000
12210 3228 13522 1 149.00000 418.400000
12211 3229 15404 1 149.00000 418.400000
12211 3230 13559 1 149.00000 418.400000
12211 3231 12592 1 149.00000 418.400000
12211 3232 12479 1 149.00000 418.400000
12212 3233 13013 1 149.00000 418.400000
11711 3234 12489 1 149.00000 418.400000
11711 3235 13870 1 149.00000 418.400000
12213 3236 13104 1 149.00000 418.400000
12213 3237 15104 1 149.00000 418.400000
12213 3238 16524 1 149.00000 418.400000
12213 3239 13183 1 149.00000 418.400000
12214 3240 13861 1 149.00000 418.400000
12214 3241 14984 1 149.00000 418.400000
12214 3242 15910 1 149.00000 418.400000
12215 3243 15504 1 149.00000 418.400000
12215 3244 13438 1 149.00000 418.400000
12215 3245 12861 1 149.00000 418.400000
12216 3246 12974 1 149.00000 418.400000
12216 3247 13621 1 149.00000 418.400000
12216 3248 19158 1 149.00000 418.400000
12216 3249 12413 1 149.00000 418.400000
12217 3250 12397 1 149.00000 418.400000
12217 3251 14218 1 149.00000 418.400000
12217 3252 13811 1 149.00000 418.400000
12218 3253 12950 1 149.00000 418.400000
12218 3254 15681 1 149.00000 418.400000
12218 3255 13021 1 149.00000 418.400000
12219 3256 16155 1 149.00000 418.400000
12219 3257 14197 1 149.00000 418.400000
12219 3258 15433 1 149.00000 418.400000
12219 3259 12326 1 149.00000 418.400000
12220 3260 13773 1 149.00000 418.400000
12220 3261 13683 1 149.00000 418.400000
12220 3262 13559 1 149.00000 418.400000
12220 3263 13884 1 149.00000 418.400000
12221 3264 14146 1 149.00000 418.400000
12222 3265 13079 1 149.00000 418.400000
12222 3266 12581 1 149.00000 418.400000
12222 3267 12964 1 149.00000 418.400000
12222 3268 13398 1 149.00000 418.400000
12223 3269 15531 1 149.00000 418.400000
12223 3270 13603 1 149.00000 418.400000
12223 3271 12571 1 149.00000 418.400000
12223 3272 14435 1 149.00000 418.400000
12224 3273 13346 1 149.00000 418.400000
12224 3274 12335 1 149.00000 418.400000
12224 3275 16495 1 149.00000 418.400000
12224 3276 15648 1 149.00000 418.400000
12225 3277 15400 1 149.00000 418.400000
12225 3278 14893 1 149.00000 418.400000
12226 3279 12412 1 149.00000 418.400000
12226 3280 15323 1 149.00000 418.400000
12226 3281 13522 1 149.00000 418.400000
12227 3282 16417 1 149.00000 418.400000
12227 3283 16506 1 149.00000 418.400000
12486 3284 19182 1 149.00000 418.400000
19182 3285 21873 1 149.00000 418.400000
12228 3286 13136 1 149.00000 418.400000
12228 3287 15690 1 149.00000 418.400000
12229 3288 13564 1 149.00000 418.400000
12229 3289 13339 1 149.00000 418.400000
12229 3290 13190 1 149.00000 418.400000
12900 3291 13466 1 149.00000 418.400000
12230 3292 13445 1 149.00000 418.400000
12230 3293 12900 1 149.00000 418.400000
12230 3294 13313 1 149.00000 418.400000
12231 3295 13490 1 149.00000 418.400000
12231 3296 14880 1 149.00000 418.400000
12231 3297 13952 1 149.00000 418.400000
13203 3298 13782 1 149.00000 418.400000
12232 3299 12720 1 149.00000 418.400000
12232 3300 13203 1 149.00000 418.400000
12232 3301 20238 1 149.00000 418.400000
13179 3302 19194 1 149.00000 418.400000
19194 3303 19614 1 149.00000 418.400000
15347 3304 19194 1 149.00000 418.400000
12233 3305 15308 1 149.00000 418.400000
12233 3306 14212 1 149.00000 418.400000
12233 3307 15045 1 149.00000 418.400000
12233 3308 12438 1 149.00000 418.400000
12054 3309 12234 1 149.00000 418.400000
12234 3310 12736 1 149.00000 418.400000
12234 3311 13666 1 149.00000 418.400000
12234 3312 16108 1 149.00000 418.400000
12235 3313 15808 1 149.00000 418.400000
12235 3314 15929 1 149.00000 418.400000
12235 3315 12359 1 149.00000 418.400000
12235 3316 16109 1 149.00000 418.400000
12236 3317 14297 1 149.00000 418.400000
12236 3318 15839 1 149.00000 418.400000
12236 3319 14387 1 149.00000 418.400000
12237 3320 15523 1 149.00000 418.400000
12237 3321 16097 1 149.00000 418.400000
12237 3322 13629 1 149.00000 418.400000
12238 3323 14685 1 149.00000 418.400000
12238 3324 13096 1 149.00000 418.400000
12239 3325 13366 1 149.00000 418.400000
12239 3326 14340 1 149.00000 418.400000
12239 3327 13524 1 149.00000 418.400000
13082 3328 14340 1 149.00000 418.400000
12240 3329 13648 1 149.00000 418.400000
12240 3330 13360 1 149.00000 418.400000
12240 3331 12830 1 149.00000 418.400000
12240 3332 17174 1 149.00000 418.400000
19206 3333 21720 1 149.00000 418.400000
14024 3334 19206 1 149.00000 418.400000
13987 3335 19206 1 149.00000 418.400000
12241 3336 15352 1 149.00000 418.400000
12241 3337 12671 1 149.00000 418.400000
12242 3338 22092 1 149.00000 418.400000
12242 3339 15913 1 149.00000 418.400000
12243 3340 13592 1 149.00000 418.400000
12243 3341 13201 1 149.00000 418.400000
12243 3342 13302 1 149.00000 418.400000
12243 3343 15749 1 149.00000 418.400000
12244 3344 13754 1 149.00000 418.400000
12244 3345 21906 1 149.00000 418.400000
12244 3346 12606 1 149.00000 418.400000
12244 3347 18280 1 149.00000 418.400000
12245 3348 14697 1 149.00000 418.400000
12245 3349 14450 1 149.00000 418.400000
12245 3350 12570 1 149.00000 418.400000
13791 3351 19218 1 149.00000 418.400000
15145 3352 19218 1 149.00000 418.400000
16247 3353 19218 1 149.00000 418.400000
12246 3354 14562 1 149.00000 418.400000
12246 3355 16105 1 149.00000 418.400000
12246 3356 14600 1 149.00000 418.400000
14021 3357 16516 1 149.00000 418.400000
12247 3358 20610 1 149.00000 418.400000
12247 3359 14021 1 149.00000 418.400000
12247 3360 12458 1 149.00000 418.400000
12248 3361 14504 1 149.00000 418.400000
12248 3362 16229 1 149.00000 418.400000
12248 3363 13015 1 149.00000 418.400000
12249 3364 12489 1 149.00000 418.400000
12249 3365 19614 1 149.00000 418.400000
13497 3366 16320 1 149.00000 418.400000
12249 3367 13497 1 149.00000 418.400000
12250 3368 13140 1 149.00000 418.400000
12250 3369 13150 1 149.00000 418.400000
12250 3370 15691 1 149.00000 418.400000
13352 3371 19230 1 149.00000 418.400000
12251 3372 21450 1 149.00000 418.400000
12251 3373 13130 1 149.00000 418.400000
12251 3374 12268 1 149.00000 418.400000
12251 3375 15329 1 149.00000 418.400000
14553 3376 19242 1 149.00000 418.400000
15296 3377 19242 1 149.00000 418.400000
15253 3378 19242 1 149.00000 418.400000
13337 3379 19254 1 149.00000 418.400000
19254 3380 22041 1 149.00000 418.400000
12252 3381 14724 1 149.00000 418.400000
12252 3382 14612 1 149.00000 418.400000
12252 3383 12731 1 149.00000 418.400000
12252 3384 13993 1 149.00000 418.400000
14905 3385 19266 1 149.00000 418.400000
12781 3386 19266 1 149.00000 418.400000
13429 3387 19266 1 149.00000 418.400000
12253 3388 15834 1 149.00000 418.400000
12253 3389 13069 1 149.00000 418.400000
12253 3390 14372 1 149.00000 418.400000
12253 3391 13635 1 149.00000 418.400000
12254 3392 14213 1 149.00000 418.400000
12254 3393 12872 1 149.00000 418.400000
12254 3394 16445 1 149.00000 418.400000
12254 3395 13607 1 149.00000 418.400000
12255 3396 12516 1 149.00000 418.400000
12255 3397 14145 1 149.00000 418.400000
12255 3398 16400 1 149.00000 418.400000
12256 3399 15959 1 149.00000 418.400000
12256 3400 13425 1 149.00000 418.400000
12256 3401 13834 1 149.00000 418.400000
12257 3402 14728 1 149.00000 418.400000
12257 3403 13702 1 149.00000 418.400000
12257 3404 15209 1 149.00000 418.400000
12257 3405 14148 1 149.00000 418.400000
12258 3406 16119 1 149.00000 418.400000
12555 3407 14833 1 149.00000 418.400000
12259 3408 12555 1 149.00000 418.400000
12259 3409 15169 1 149.00000 418.400000
12260 3410 16173 1 149.00000 418.400000
12260 3411 16344 1 149.00000 418.400000
12260 3412 14403 1 149.00000 418.400000
12260 3413 16251 1 149.00000 418.400000
12261 3414 13018 1 149.00000 418.400000
13018 3415 14030 1 149.00000 418.400000
12261 3416 12842 1 149.00000 418.400000
14615 3417 19278 1 149.00000 418.400000
19278 3418 22384 1 149.00000 418.400000
13356 3419 19278 1 149.00000 418.400000
12262 3420 14580 1 149.00000 418.400000
12262 3421 15010 1 149.00000 418.400000
12262 3422 15553 1 149.00000 418.400000
12262 3423 15590 1 149.00000 418.400000
12263 3424 15539 1 149.00000 418.400000
12263 3425 21588 1 149.00000 418.400000
12264 3426 15406 1 149.00000 418.400000
12264 3427 13961 1 149.00000 418.400000
12264 3428 15902 1 149.00000 418.400000
12264 3429 14609 1 149.00000 418.400000
15229 3430 19290 1 149.00000 418.400000
14354 3431 19290 1 149.00000 418.400000
12123 3432 12265 1 149.00000 418.400000
12265 3433 14023 1 149.00000 418.400000
12149 3434 12278 1 149.00000 418.400000
12266 3435 14638 1 149.00000 418.400000
12266 3436 12306 1 149.00000 418.400000
12266 3437 14821 1 149.00000 418.400000
12266 3438 14576 1 149.00000 418.400000
12267 3439 12872 1 149.00000 418.400000
12267 3440 12923 1 149.00000 418.400000
12267 3441 16318 1 149.00000 418.400000
12267 3442 15385 1 149.00000 418.400000
12268 3443 21732 1 149.00000 418.400000
12269 3444 12997 1 149.00000 418.400000
12269 3445 13395 1 149.00000 418.400000
12269 3446 13653 1 149.00000 418.400000
12269 3447 13454 1 149.00000 418.400000
12270 3448 12885 1 149.00000 418.400000
12270 3449 14479 1 149.00000 418.400000
12207 3450 12270 1 149.00000 418.400000
12270 3451 15579 1 149.00000 418.400000
12271 3452 14503 1 149.00000 418.400000
12271 3453 13202 1 149.00000 418.400000
12272 3454 14619 1 149.00000 418.400000
12272 3455 12303 1 149.00000 418.400000
12272 3456 15647 1 149.00000 418.400000
12273 3457 16103 1 149.00000 418.400000
14641 3458 16453 1 149.00000 418.400000
12273 3459 12843 1 149.00000 418.400000
12274 3460 15545 1 149.00000 418.400000
12274 3461 14193 1 149.00000 418.400000
12274 3462 15746 1 149.00000 418.400000
12274 3463 22323 1 149.00000 418.400000
11535 3464 12275 1 149.00000 418.400000
12275 3465 14687 1 149.00000 418.400000
12275 3466 15050 1 149.00000 418.400000
12275 3467 15893 1 149.00000 418.400000
12276 3468 15820 1 149.00000 418.400000
12276 3469 14015 1 149.00000 418.400000
12276 3470 22239 1 149.00000 418.400000
12277 3471 13508 1 149.00000 418.400000
12277 3472 14866 1 149.00000 418.400000
12277 3473 14862 1 149.00000 418.400000
12277 3474 13320 1 149.00000 418.400000
12278 3475 15519 1 149.00000 418.400000
12278 3476 14246 1 149.00000 418.400000
12355 3477 19302 1 149.00000 418.400000
19302 3478 21681 1 149.00000 418.400000
19302 3479 21522 1 149.00000 418.400000
12279 3480 13324 1 149.00000 418.400000
12279 3481 15829 1 149.00000 418.400000
12279 3482 14123 1 149.00000 418.400000
12279 3483 13844 1 149.00000 418.400000
12280 3484 14826 1 149.00000 418.400000
12280 3485 16515 1 149.00000 418.400000
12281 3486 15368 1 149.00000 418.400000
12281 3487 13318 1 149.00000 418.400000
12281 3488 14738 1 149.00000 418.400000
12282 3489 16350 1 149.00000 418.400000
12282 3490 19074 1 149.00000 418.400000
12282 3491 13108 1 149.00000 418.400000
21294 3492 21969 1 149.00000 418.400000
21294 3493 22017 1 149.00000 418.400000
16070 3494 21708 1 149.00000 418.400000
12283 3495 13618 1 149.00000 418.400000
12283 3496 15023 1 149.00000 418.400000
12283 3497 15730 1 149.00000 418.400000
12283 3498 14817 1 149.00000 418.400000
12284 3499 16188 1 149.00000 418.400000
12284 3500 19518 1 149.00000 418.400000
12284 3501 13817 1 149.00000 418.400000
12284 3502 14783 1 149.00000 418.400000
12285 3503 13443 1 149.00000 418.400000
12285 3504 21486 1 149.00000 418.400000
12285 3505 16024 1 149.00000 418.400000
12286 3506 14221 1 149.00000 418.400000
12286 3507 14961 1 149.00000 418.400000
12286 3508 14813 1 149.00000 418.400000
12286 3509 15793 1 149.00000 418.400000
12287 3510 13773 1 149.00000 418.400000
12287 3511 13786 1 149.00000 418.400000
12287 3512 14966 1 149.00000 418.400000
12287 3513 16252 1 149.00000 418.400000
12288 3514 14860 1 149.00000 418.400000
12288 3515 15817 1 149.00000 418.400000
12289 3516 15308 1 149.00000 418.400000
12289 3517 12603 1 149.00000 418.400000
12290 3518 14136 1 149.00000 418.400000
12290 3519 13539 1 149.00000 418.400000
12290 3520 12982 1 149.00000 418.400000
12291 3521 15759 1 149.00000 418.400000
12291 3522 13319 1 149.00000 418.400000
12291 3523 15872 1 149.00000 418.400000
12291 3524 15866 1 149.00000 418.400000
19314 3525 21702 1 149.00000 418.400000
15357 3526 19314 1 149.00000 418.400000
19314 3527 21951 1 149.00000 418.400000
12292 3528 16385 1 149.00000 418.400000
12292 3529 16117 1 149.00000 418.400000
12292 3530 15585 1 149.00000 418.400000
12293 3531 13858 1 149.00000 418.400000
12293 3532 13209 1 149.00000 418.400000
12293 3533 13666 1 149.00000 418.400000
12293 3534 15703 1 149.00000 418.400000
12294 3535 12750 1 149.00000 418.400000
12294 3536 16515 1 149.00000 418.400000
12294 3537 18336 1 149.00000 418.400000
12295 3538 16441 1 149.00000 418.400000
12295 3539 20346 1 149.00000 418.400000
12295 3540 17090 1 149.00000 418.400000
12295 3541 14091 1 149.00000 418.400000
12296 3542 12476 1 149.00000 418.400000
12296 3543 22379 1 149.00000 418.400000
12296 3544 14291 1 149.00000 418.400000
12296 3545 14496 1 149.00000 418.400000
12297 3546 15904 1 149.00000 418.400000
12297 3547 12651 1 149.00000 418.400000
12297 3548 14718 1 149.00000 418.400000
12298 3549 21579 1 149.00000 418.400000
12298 3550 14646 1 149.00000 418.400000
12298 3551 14768 1 149.00000 418.400000
12298 3552 15415 1 149.00000 418.400000
12299 3553 14236 1 149.00000 418.400000
12299 3554 13733 1 149.00000 418.400000
12300 3555 16244 1 149.00000 418.400000
12300 3556 12532 1 149.00000 418.400000
12300 3557 16290 1 149.00000 418.400000
12300 3558 14991 1 149.00000 418.400000
19326 3559 21972 1 149.00000 418.400000
17846 3560 19326 1 149.00000 418.400000
13754 3561 19326 1 149.00000 418.400000
15822 3562 16442 1 149.00000 418.400000
12301 3563 12391 1 149.00000 418.400000
12301 3564 15822 1 149.00000 418.400000
12907 3565 15822 1 149.00000 418.400000
13599 3566 19338 1 149.00000 418.400000
19338 3567 22113 1 149.00000 418.400000
19338 3568 21948 1 149.00000 418.400000
19350 3569 22444 1 149.00000 418.400000
15796 3570 19350 1 149.00000 418.400000
12302 3571 14577 1 149.00000 418.400000
12302 3572 13316 1 149.00000 418.400000
12302 3573 14419 1 149.00000 418.400000
12302 3574 12542 1 149.00000 418.400000
12303 3575 12887 1 149.00000 418.400000
12303 3576 16230 1 149.00000 418.400000
11790 3577 13324 1 149.00000 418.400000
12304 3578 13442 1 149.00000 418.400000
12304 3579 14123 1 149.00000 418.400000
12305 3580 16186 1 149.00000 418.400000
12305 3581 15627 1 149.00000 418.400000
12305 3582 15389 1 149.00000 418.400000
12306 3583 14351 1 149.00000 418.400000
12307 3584 15159 1 149.00000 418.400000
12307 3585 15571 1 149.00000 418.400000
12307 3586 12995 1 149.00000 418.400000
13120 3587 16257 1 149.00000 418.400000
12308 3588 13120 1 149.00000 418.400000
12308 3589 16351 1 149.00000 418.400000
12308 3590 13232 1 149.00000 418.400000
12309 3591 15508 1 149.00000 418.400000
12309 3592 12637 1 149.00000 418.400000
12309 3593 12983 1 149.00000 418.400000
12309 3594 15166 1 149.00000 418.400000
12310 3595 13803 1 149.00000 418.400000
12310 3596 15913 1 149.00000 418.400000
12310 3597 14385 1 149.00000 418.400000
12311 3598 14920 1 149.00000 418.400000
12311 3599 12490 1 149.00000 418.400000
12311 3600 12402 1 149.00000 418.400000
19362 3601 21843 1 149.00000 418.400000
12312 3602 14602 1 149.00000 418.400000
12312 3603 20646 1 149.00000 418.400000
12312 3604 20634 1 149.00000 418.400000
12313 3605 14324 1 149.00000 418.400000
12313 3606 13968 1 149.00000 418.400000
12313 3607 14360 1 149.00000 418.400000
12313 3608 14242 1 149.00000 418.400000
12314 3609 15116 1 149.00000 418.400000
12314 3610 14175 1 149.00000 418.400000
12314 3611 16022 1 149.00000 418.400000
12314 3612 15297 1 149.00000 418.400000
12315 3613 14830 1 149.00000 418.400000
12315 3614 12727 1 149.00000 418.400000
12315 3615 14946 1 149.00000 418.400000
12315 3616 13276 1 149.00000 418.400000
11751 3617 15044 1 149.00000 418.400000
12316 3618 13683 1 149.00000 418.400000
12316 3619 12962 1 149.00000 418.400000
12317 3620 15199 1 149.00000 418.400000
12317 3621 14462 1 149.00000 418.400000
12317 3622 15622 1 149.00000 418.400000
12318 3623 12624 1 149.00000 418.400000
12318 3624 15664 1 149.00000 418.400000
15664 3625 20118 1 149.00000 418.400000
12318 3626 16306 1 149.00000 418.400000
19374 3627 19926 1 149.00000 418.400000
20562 3628 21777 1 149.00000 418.400000
12319 3629 13732 1 149.00000 418.400000
13732 3630 15532 1 149.00000 418.400000
12319 3631 15172 1 149.00000 418.400000
12320 3632 12807 1 149.00000 418.400000
12320 3633 22459 1 149.00000 418.400000
12320 3634 13678 1 149.00000 418.400000
17608 3635 22459 1 149.00000 418.400000
12321 3636 15921 1 149.00000 418.400000
12321 3637 14009 1 149.00000 418.400000
12322 3638 15615 1 149.00000 418.400000
12322 3639 15636 1 149.00000 418.400000
12322 3640 16162 1 149.00000 418.400000
12322 3641 14135 1 149.00000 418.400000
12323 3642 15490 1 149.00000 418.400000
12323 3643 14981 1 149.00000 418.400000
12324 3644 17594 1 149.00000 418.400000
12324 3645 20694 1 149.00000 418.400000
12325 3646 14219 1 149.00000 418.400000
12325 3647 13415 1 149.00000 418.400000
12325 3648 12907 1 149.00000 418.400000
12326 3649 13199 1 149.00000 418.400000
12326 3650 15179 1 149.00000 418.400000
12327 3651 15773 1 149.00000 418.400000
12327 3652 12451 1 149.00000 418.400000
12327 3653 16200 1 149.00000 418.400000
12328 3654 13132 1 149.00000 418.400000
11913 3655 13810 1 149.00000 418.400000
12328 3656 13980 1 149.00000 418.400000
12328 3657 13810 1 149.00000 418.400000
12329 3658 16207 1 149.00000 418.400000
12329 3659 14970 1 149.00000 418.400000
12329 3660 15051 1 149.00000 418.400000
12330 3661 14766 1 149.00000 418.400000
12330 3662 15622 1 149.00000 418.400000
12330 3663 14970 1 149.00000 418.400000
12331 3664 12544 1 149.00000 418.400000
12331 3665 13276 1 149.00000 418.400000
12331 3666 13802 1 149.00000 418.400000
12331 3667 14007 1 149.00000 418.400000
12332 3668 14731 1 149.00000 418.400000
12332 3669 14603 1 149.00000 418.400000
12332 3670 12417 1 149.00000 418.400000
12332 3671 16032 1 149.00000 418.400000
12333 3672 13107 1 149.00000 418.400000
12333 3673 14412 1 149.00000 418.400000
12333 3674 14156 1 149.00000 418.400000
12333 3675 14461 1 149.00000 418.400000
16287 3676 19386 1 149.00000 418.400000
19386 3677 21858 1 149.00000 418.400000
12334 3678 15422 1 149.00000 418.400000
12334 3679 12721 1 149.00000 418.400000
12334 3680 15553 1 149.00000 418.400000
12335 3681 15497 1 149.00000 418.400000
12335 3682 13805 1 149.00000 418.400000
12336 3683 15875 1 149.00000 418.400000
12336 3684 16108 1 149.00000 418.400000
12336 3685 15455 1 149.00000 418.400000
12337 3686 12777 1 149.00000 418.400000
12337 3687 12513 1 149.00000 418.400000
12338 3688 12781 1 149.00000 418.400000
12338 3689 15630 1 149.00000 418.400000
12338 3690 15903 1 149.00000 418.400000
12339 3691 14341 1 149.00000 418.400000
12339 3692 15287 1 149.00000 418.400000
12339 3693 13090 1 149.00000 418.400000
12340 3694 16305 1 149.00000 418.400000
11522 3695 12340 1 149.00000 418.400000
12340 3696 14735 1 149.00000 418.400000
12340 3697 16324 1 149.00000 418.400000
12341 3698 13704 1 149.00000 418.400000
12341 3699 13651 1 149.00000 418.400000
12341 3700 15087 1 149.00000 418.400000
12341 3701 12585 1 149.00000 418.400000
12342 3702 13305 1 149.00000 418.400000
12342 3703 13844 1 149.00000 418.400000
12343 3704 14827 1 149.00000 418.400000
12343 3705 15825 1 149.00000 418.400000
12343 3706 12407 1 149.00000 418.400000
12343 3707 13589 1 149.00000 418.400000
13073 3708 14031 1 149.00000 418.400000
12344 3709 13073 1 149.00000 418.400000
12344 3710 16464 1 149.00000 418.400000
12344 3711 15963 1 149.00000 418.400000
12345 3712 13310 1 149.00000 418.400000
12345 3713 12738 1 149.00000 418.400000
13310 3714 14010 1 149.00000 418.400000
12345 3715 15069 1 149.00000 418.400000
12346 3716 15850 1 149.00000 418.400000
12346 3717 12801 1 149.00000 418.400000
12346 3718 16097 1 149.00000 418.400000
12346 3719 13354 1 149.00000 418.400000
12347 3720 13556 1 149.00000 418.400000
12347 3721 12562 1 149.00000 418.400000
12347 3722 13977 1 149.00000 418.400000
12348 3723 14224 1 149.00000 418.400000
12348 3724 13927 1 149.00000 418.400000
12348 3725 12676 1 149.00000 418.400000
12349 3726 15418 1 149.00000 418.400000
12349 3727 22038 1 149.00000 418.400000
12350 3728 13383 1 149.00000 418.400000
13215 3729 13383 1 149.00000 418.400000
12350 3730 15246 1 149.00000 418.400000
12350 3731 16147 1 149.00000 418.400000
12351 3732 16384 1 149.00000 418.400000
12351 3733 12924 1 149.00000 418.400000
12351 3734 14318 1 149.00000 418.400000
12351 3735 16423 1 149.00000 418.400000
19398 3736 22344 1 149.00000 418.400000
15847 3737 19398 1 149.00000 418.400000
12352 3738 16479 1 149.00000 418.400000
12247 3739 12352 1 149.00000 418.400000
12352 3740 22020 1 149.00000 418.400000
12353 3741 14285 1 149.00000 418.400000
12353 3742 16017 1 149.00000 418.400000
12353 3743 12879 1 149.00000 418.400000
12353 3744 15476 1 149.00000 418.400000
12354 3745 14846 1 149.00000 418.400000
12354 3746 16469 1 149.00000 418.400000
12354 3747 13037 1 149.00000 418.400000
12354 3748 16410 1 149.00000 418.400000
12355 3749 12903 1 149.00000 418.400000
12355 3750 16424 1 149.00000 418.400000
12356 3751 12786 1 149.00000 418.400000
12356 3752 16361 1 149.00000 418.400000
12356 3753 12741 1 149.00000 418.400000
12356 3754 12403 1 149.00000 418.400000
12357 3755 13609 1 149.00000 418.400000
12357 3756 14204 1 149.00000 418.400000
12357 3757 16107 1 149.00000 418.400000
12357 3758 12629 1 149.00000 418.400000
12022 3759 12593 1 149.00000 418.400000
12358 3760 14839 1 149.00000 418.400000
12358 3761 16227 1 149.00000 418.400000
12359 3762 13336 1 149.00000 418.400000
12359 3763 16032 1 149.00000 418.400000
12360 3764 14143 1 149.00000 418.400000
12360 3765 15941 1 149.00000 418.400000
12361 3766 13672 1 149.00000 418.400000
12361 3767 13902 1 149.00000 418.400000
12361 3768 15082 1 149.00000 418.400000
12361 3769 14649 1 149.00000 418.400000
11600 3770 15563 1 149.00000 418.400000
19410 3771 21510 1 149.00000 418.400000
14270 3772 19410 1 149.00000 418.400000
12363 3773 21666 1 149.00000 418.400000
12363 3774 13616 1 149.00000 418.400000
12363 3775 22302 1 149.00000 418.400000
12364 3776 16477 1 149.00000 418.400000
12364 3777 12780 1 149.00000 418.400000
12364 3778 12797 1 149.00000 418.400000
12364 3779 21222 1 149.00000 418.400000
12365 3780 15444 1 149.00000 418.400000
12365 3781 14213 1 149.00000 418.400000
12365 3782 15529 1 149.00000 418.400000
12365 3783 12620 1 149.00000 418.400000
12366 3784 16212 1 149.00000 418.400000
12366 3785 15917 1 149.00000 418.400000
12366 3786 13487 1 149.00000 418.400000
12367 3787 13248 1 149.00000 418.400000
12367 3788 12372 1 149.00000 418.400000
12367 3789 12967 1 149.00000 418.400000
12368 3790 13058 1 149.00000 418.400000
12368 3791 15069 1 149.00000 418.400000
12368 3792 14509 1 149.00000 418.400000
12369 3793 14589 1 149.00000 418.400000
12369 3794 12835 1 149.00000 418.400000
12369 3795 15961 1 149.00000 418.400000
11723 3796 12369 1 149.00000 418.400000
12370 3797 13350 1 149.00000 418.400000
12370 3798 12556 1 149.00000 418.400000
12370 3799 13199 1 149.00000 418.400000
12370 3800 16221 1 149.00000 418.400000
12371 3801 15836 1 149.00000 418.400000
12371 3802 12987 1 149.00000 418.400000
12371 3803 13628 1 149.00000 418.400000
12371 3804 13648 1 149.00000 418.400000
12367 3805 12392 1 149.00000 418.400000
12372 3806 12849 1 149.00000 418.400000
12372 3807 15040 1 149.00000 418.400000
12373 3808 15027 1 149.00000 418.400000
12373 3809 14729 1 149.00000 418.400000
12373 3810 12694 1 149.00000 418.400000
12373 3811 14034 1 149.00000 418.400000
14482 3812 16476 1 149.00000 418.400000
12374 3813 13177 1 149.00000 418.400000
12374 3814 16333 1 149.00000 418.400000
12374 3815 14482 1 149.00000 418.400000
12375 3816 14394 1 149.00000 418.400000
12375 3817 13742 1 149.00000 418.400000
12375 3818 13287 1 149.00000 418.400000
12376 3819 13941 1 149.00000 418.400000
12376 3820 14580 1 149.00000 418.400000
12376 3821 13910 1 149.00000 418.400000
12376 3822 14963 1 149.00000 418.400000
12377 3823 15060 1 149.00000 418.400000
12377 3824 14469 1 149.00000 418.400000
12377 3825 14661 1 149.00000 418.400000
12378 3826 15817 1 149.00000 418.400000
12378 3827 13944 1 149.00000 418.400000
12378 3828 12940 1 149.00000 418.400000
12379 3829 16252 1 149.00000 418.400000
12379 3830 15045 1 149.00000 418.400000
12379 3831 14673 1 149.00000 418.400000
12380 3832 18654 1 149.00000 418.400000
14117 3833 16393 1 149.00000 418.400000
12380 3834 21921 1 149.00000 418.400000
12381 3835 15553 1 149.00000 418.400000
12381 3836 13954 1 149.00000 418.400000
12381 3837 16348 1 149.00000 418.400000
12382 3838 14183 1 149.00000 418.400000
12382 3839 13630 1 149.00000 418.400000
12382 3840 13922 1 149.00000 418.400000
12382 3841 16143 1 149.00000 418.400000
12383 3842 12932 1 149.00000 418.400000
12383 3843 14759 1 149.00000 418.400000
12383 3844 15842 1 149.00000 418.400000
12384 3845 21723 1 149.00000 418.400000
12384 3846 15284 1 149.00000 418.400000
12384 3847 20394 1 149.00000 418.400000
12384 3848 16125 1 149.00000 418.400000
12385 3849 13620 1 149.00000 418.400000
12385 3850 12713 1 149.00000 418.400000
12385 3851 13000 1 149.00000 418.400000
12386 3852 13374 1 149.00000 418.400000
12386 3853 14922 1 149.00000 418.400000
12386 3854 16183 1 149.00000 418.400000
12387 3855 15863 1 149.00000 418.400000
12387 3856 14437 1 149.00000 418.400000
12387 3857 15981 1 149.00000 418.400000
12387 3858 13660 1 149.00000 418.400000
12388 3859 13331 1 149.00000 418.400000
12388 3860 16224 1 149.00000 418.400000
12388 3861 16055 1 149.00000 418.400000
12388 3862 13926 1 149.00000 418.400000
12389 3863 14088 1 149.00000 418.400000
12389 3864 15504 1 149.00000 418.400000
12389 3865 16389 1 149.00000 418.400000
12389 3866 15524 1 149.00000 418.400000
12390 3867 13350 1 149.00000 418.400000
12390 3868 15361 1 149.00000 418.400000
12391 3869 15598 1 149.00000 418.400000
12392 3870 16049 1 149.00000 418.400000
12392 3871 13335 1 149.00000 418.400000
12392 3872 13038 1 149.00000 418.400000
12393 3873 13320 1 149.00000 418.400000
12393 3874 14571 1 149.00000 418.400000
12393 3875 15068 1 149.00000 418.400000
12393 3876 12887 1 149.00000 418.400000
12982 3877 19422 1 149.00000 418.400000
19422 3878 22059 1 149.00000 418.400000
15269 3879 19434 1 149.00000 418.400000
19434 3880 21744 1 149.00000 418.400000
15366 3881 19434 1 149.00000 418.400000
12394 3882 14812 1 149.00000 418.400000
12394 3883 13996 1 149.00000 418.400000
12394 3884 13316 1 149.00000 418.400000
12394 3885 21804 1 149.00000 418.400000
12395 3886 14766 1 149.00000 418.400000
12395 3887 15511 1 149.00000 418.400000
12395 3888 15904 1 149.00000 418.400000
12396 3889 15795 1 149.00000 418.400000
12396 3890 13349 1 149.00000 418.400000
12396 3891 14286 1 149.00000 418.400000
12397 3892 13448 1 149.00000 418.400000
12397 3893 12511 1 149.00000 418.400000
12397 3894 15460 1 149.00000 418.400000
12398 3895 15685 1 149.00000 418.400000
12398 3896 14545 1 149.00000 418.400000
12398 3897 14562 1 149.00000 418.400000
12398 3898 15387 1 149.00000 418.400000
12399 3899 15482 1 149.00000 418.400000
12399 3900 13285 1 149.00000 418.400000
12399 3901 16456 1 149.00000 418.400000
12400 3902 14287 1 149.00000 418.400000
12400 3903 13821 1 149.00000 418.400000
12400 3904 19806 1 149.00000 418.400000
12400 3905 12425 1 149.00000 418.400000
12401 3906 14814 1 149.00000 418.400000
12401 3907 13450 1 149.00000 418.400000
12401 3908 15149 1 149.00000 418.400000
12401 3909 12688 1 149.00000 418.400000
12402 3910 15276 1 149.00000 418.400000
12402 3911 14359 1 149.00000 418.400000
12402 3912 12684 1 149.00000 418.400000
12403 3913 14640 1 149.00000 418.400000
12403 3914 21663 1 149.00000 418.400000
12404 3915 14455 1 149.00000 418.400000
12404 3916 15317 1 149.00000 418.400000
12404 3917 12923 1 149.00000 418.400000
12404 3918 16505 1 149.00000 418.400000
13905 3919 14414 1 149.00000 418.400000
12405 3920 13905 1 149.00000 418.400000
12405 3921 16440 1 149.00000 418.400000
21591 3922 21711 1 149.00000 418.400000
12406 3923 21711 1 149.00000 418.400000
12407 3924 15341 1 149.00000 418.400000
12407 3925 15177 1 149.00000 418.400000
12407 3926 14074 1 149.00000 418.400000
12408 3927 21966 1 149.00000 418.400000
12408 3928 14598 1 149.00000 418.400000
13290 3929 19446 1 149.00000 418.400000
19446 3930 21720 1 149.00000 418.400000
12409 3931 14517 1 149.00000 418.400000
12409 3932 15494 1 149.00000 418.400000
12409 3933 14568 1 149.00000 418.400000
12409 3934 13893 1 149.00000 418.400000
13279 3935 21969 1 149.00000 418.400000
13279 3936 19458 1 149.00000 418.400000
12410 3937 13339 1 149.00000 418.400000
12410 3938 13760 1 149.00000 418.400000
12411 3939 14904 1 149.00000 418.400000
12411 3940 13035 1 149.00000 418.400000
12411 3941 14000 1 149.00000 418.400000
12411 3942 15579 1 149.00000 418.400000
12412 3943 13738 1 149.00000 418.400000
12412 3944 13171 1 149.00000 418.400000
12412 3945 15223 1 149.00000 418.400000
12413 3946 22035 1 149.00000 418.400000
12414 3947 13867 1 149.00000 418.400000
12414 3948 13473 1 149.00000 418.400000
12414 3949 14770 1 149.00000 418.400000
12415 3950 12787 1 149.00000 418.400000
12415 3951 14674 1 149.00000 418.400000
12415 3952 13117 1 149.00000 418.400000
12415 3953 13713 1 149.00000 418.400000
12416 3954 13557 1 149.00000 418.400000
12416 3955 14010 1 149.00000 418.400000
13557 3956 17482 1 149.00000 418.400000
12416 3957 13310 1 149.00000 418.400000
12417 3958 14501 1 149.00000 418.400000
12417 3959 14661 1 149.00000 418.400000
12418 3960 14346 1 149.00000 418.400000
12418 3961 12582 1 149.00000 418.400000
12419 3962 13748 1 149.00000 418.400000
12419 3963 14725 1 149.00000 418.400000
12419 3964 13134 1 149.00000 418.400000
12419 3965 15040 1 149.00000 418.400000
12420 3966 14221 1 149.00000 418.400000
12420 3967 15283 1 149.00000 418.400000
12420 3968 14311 1 149.00000 418.400000
12420 3969 13710 1 149.00000 418.400000
12421 3970 15378 1 149.00000 418.400000
12421 3971 12434 1 149.00000 418.400000
11769 3972 13538 1 149.00000 418.400000
12422 3973 13088 1 149.00000 418.400000
12422 3974 22296 1 149.00000 418.400000
12422 3975 14896 1 149.00000 418.400000
12422 3976 17902 1 149.00000 418.400000
12423 3977 14545 1 149.00000 418.400000
12423 3978 15471 1 149.00000 418.400000
12424 3979 13968 1 149.00000 418.400000
12424 3980 13223 1 149.00000 418.400000
12424 3981 14601 1 149.00000 418.400000
12425 3982 16383 1 149.00000 418.400000
12425 3983 14280 1 149.00000 418.400000
12425 3984 13749 1 149.00000 418.400000
12426 3985 14438 1 149.00000 418.400000
12426 3986 16512 1 149.00000 418.400000
12426 3987 15868 1 149.00000 418.400000
12426 3988 14746 1 149.00000 418.400000
12427 3989 15463 1 149.00000 418.400000
12427 3990 13280 1 149.00000 418.400000
12427 3991 14216 1 149.00000 418.400000
12427 3992 14565 1 149.00000 418.400000
12428 3993 18154 1 149.00000 418.400000
12428 3994 13160 1 149.00000 418.400000
12428 3995 15062 1 149.00000 418.400000
12428 3996 13086 1 149.00000 418.400000
12429 3997 16408 1 149.00000 418.400000
12429 3998 14233 1 149.00000 418.400000
12429 3999 14124 1 149.00000 418.400000
12430 4000 14560 1 149.00000 418.400000
12430 4001 14566 1 149.00000 418.400000
12430 4002 15503 1 149.00000 418.400000
12431 4003 15784 1 149.00000 418.400000
12431 4004 16137 1 149.00000 418.400000
12432 4005 13647 1 149.00000 418.400000
12432 4006 15769 1 149.00000 418.400000
12432 4007 14502 1 149.00000 418.400000
12432 4008 14530 1 149.00000 418.400000
12433 4009 15464 1 149.00000 418.400000
12139 4010 12433 1 149.00000 418.400000
12433 4011 14047 1 149.00000 418.400000
12434 4012 13669 1 149.00000 418.400000
12434 4013 12957 1 149.00000 418.400000
12435 4014 17482 1 149.00000 418.400000
12435 4015 13200 1 149.00000 418.400000
12435 4016 13462 1 149.00000 418.400000
14757 4017 19470 1 149.00000 418.400000
19470 4018 22056 1 149.00000 418.400000
12436 4019 14641 1 149.00000 418.400000
12436 4020 14912 1 149.00000 418.400000
12436 4021 16265 1 149.00000 418.400000
12788 4022 16052 1 149.00000 418.400000
12437 4023 21609 1 149.00000 418.400000
12437 4024 12841 1 149.00000 418.400000
12437 4025 16052 1 149.00000 418.400000
12438 4026 13195 1 149.00000 418.400000
13195 4027 16266 1 149.00000 418.400000
13289 4028 19482 1 149.00000 418.400000
16191 4029 19482 1 149.00000 418.400000
11584 4030 14837 1 149.00000 418.400000
12439 4031 22185 1 149.00000 418.400000
12439 4032 19794 1 149.00000 418.400000
19494 4033 22026 1 149.00000 418.400000
13914 4034 19494 1 149.00000 418.400000
12440 4035 14461 1 149.00000 418.400000
13393 4036 15514 1 149.00000 418.400000
12440 4037 16473 1 149.00000 418.400000
12440 4038 15514 1 149.00000 418.400000
12441 4039 15185 1 149.00000 418.400000
12441 4040 14191 1 149.00000 418.400000
12442 4041 22176 1 149.00000 418.400000
12442 4042 15538 1 149.00000 418.400000
12443 4043 15384 1 149.00000 418.400000
12443 4044 12462 1 149.00000 418.400000
12443 4045 16158 1 149.00000 418.400000
12444 4046 12625 1 149.00000 418.400000
12444 4047 13143 1 149.00000 418.400000
12444 4048 13723 1 149.00000 418.400000
12445 4049 15033 1 149.00000 418.400000
12445 4050 17930 1 149.00000 418.400000
12445 4051 17720 1 149.00000 418.400000
12445 4052 14700 1 149.00000 418.400000
12446 4053 14905 1 149.00000 418.400000
12446 4054 13489 1 149.00000 418.400000
12446 4055 14730 1 149.00000 418.400000
12447 4056 13839 1 149.00000 418.400000
12447 4057 21981 1 149.00000 418.400000
12447 4058 15468 1 149.00000 418.400000
12448 4059 13672 1 149.00000 418.400000
12448 4060 17328 1 149.00000 418.400000
12448 4061 12769 1 149.00000 418.400000
12449 4062 15487 1 149.00000 418.400000
12449 4063 15603 1 149.00000 418.400000
12449 4064 13834 1 149.00000 418.400000
12449 4065 12491 1 149.00000 418.400000
12450 4066 15696 1 149.00000 418.400000
11984 4067 15696 1 149.00000 418.400000
12450 4068 14628 1 149.00000 418.400000
12451 4069 14164 1 149.00000 418.400000
12452 4070 15242 1 149.00000 418.400000
12452 4071 15327 1 149.00000 418.400000
12452 4072 12664 1 149.00000 418.400000
12452 4073 14740 1 149.00000 418.400000
12453 4074 16135 1 149.00000 418.400000
12453 4075 12520 1 149.00000 418.400000
12453 4076 21825 1 149.00000 418.400000
12454 4077 15191 1 149.00000 418.400000
12454 4078 15558 1 149.00000 418.400000
12454 4079 12912 1 149.00000 418.400000
12454 4080 15892 1 149.00000 418.400000
11803 4081 14680 1 149.00000 418.400000
12455 4082 22056 1 149.00000 418.400000
12455 4083 12644 1 149.00000 418.400000
12456 4084 13798 1 149.00000 418.400000
12456 4085 12880 1 149.00000 418.400000
12457 4086 15188 1 149.00000 418.400000
12457 4087 18392 1 149.00000 418.400000
12457 4088 14620 1 149.00000 418.400000
12458 4089 12545 1 149.00000 418.400000
12458 4090 13840 1 149.00000 418.400000
12458 4091 13584 1 149.00000 418.400000
12459 4092 13903 1 149.00000 418.400000
12459 4093 13411 1 149.00000 418.400000
12459 4094 13075 1 149.00000 418.400000
12459 4095 14951 1 149.00000 418.400000
12460 4096 13433 1 149.00000 418.400000
12460 4097 15202 1 149.00000 418.400000
12460 4098 13532 1 149.00000 418.400000
12460 4099 15319 1 149.00000 418.400000
12461 4100 13377 1 149.00000 418.400000
13377 4101 16043 1 149.00000 418.400000
17216 4102 19506 1 149.00000 418.400000
13214 4103 19506 1 149.00000 418.400000
12462 4104 13321 1 149.00000 418.400000
12462 4105 16357 1 149.00000 418.400000
12462 4106 16129 1 149.00000 418.400000
12992 4107 16366 1 149.00000 418.400000
12463 4108 12992 1 149.00000 418.400000
12463 4109 16469 1 149.00000 418.400000
12463 4110 15356 1 149.00000 418.400000
13098 4111 20526 1 149.00000 418.400000
12464 4112 12653 1 149.00000 418.400000
12464 4113 14102 1 149.00000 418.400000
12465 4114 14559 1 149.00000 418.400000
12465 4115 14790 1 149.00000 418.400000
12465 4116 16328 1 149.00000 418.400000
12465 4117 16063 1 149.00000 418.400000
12466 4118 21948 1 149.00000 418.400000
12466 4119 22335 1 149.00000 418.400000
12467 4120 16378 1 149.00000 418.400000
12467 4121 14689 1 149.00000 418.400000
12467 4122 15386 1 149.00000 418.400000
12467 4123 14237 1 149.00000 418.400000
12468 4124 15478 1 149.00000 418.400000
12468 4125 16264 1 149.00000 418.400000
12468 4126 13827 1 149.00000 418.400000
12468 4127 15900 1 149.00000 418.400000
12469 4128 13299 1 149.00000 418.400000
12469 4129 15616 1 149.00000 418.400000
12470 4130 15466 1 149.00000 418.400000
12470 4131 13139 1 149.00000 418.400000
12471 4132 14760 1 149.00000 418.400000
12471 4133 12659 1 149.00000 418.400000
12471 4134 14692 1 149.00000 418.400000
12472 4135 13798 1 149.00000 418.400000
12472 4136 13826 1 149.00000 418.400000
12472 4137 12525 1 149.00000 418.400000
12473 4138 14457 1 149.00000 418.400000
12473 4139 15857 1 149.00000 418.400000
12473 4140 14664 1 149.00000 418.400000
12474 4141 15025 1 149.00000 418.400000
12474 4142 15369 1 149.00000 418.400000
12474 4143 12541 1 149.00000 418.400000
12474 4144 12652 1 149.00000 418.400000
12475 4145 16266 1 149.00000 418.400000
12475 4146 13482 1 149.00000 418.400000
12475 4147 15308 1 149.00000 418.400000
12475 4148 14845 1 149.00000 418.400000
12476 4149 15521 1 149.00000 418.400000
12476 4150 18140 1 149.00000 418.400000
12477 4151 14977 1 149.00000 418.400000
12477 4152 13317 1 149.00000 418.400000
12477 4153 13629 1 149.00000 418.400000
12478 4154 14149 1 149.00000 418.400000
12478 4155 15776 1 149.00000 418.400000
12478 4156 13480 1 149.00000 418.400000
12478 4157 14162 1 149.00000 418.400000
12479 4158 15728 1 149.00000 418.400000
12479 4159 15695 1 149.00000 418.400000
12480 4160 16178 1 149.00000 418.400000
12480 4161 15186 1 149.00000 418.400000
12480 4162 15030 1 149.00000 418.400000
12481 4163 14840 1 149.00000 418.400000
12481 4164 14150 1 149.00000 418.400000
12481 4165 16002 1 149.00000 418.400000
12481 4166 13695 1 149.00000 418.400000
11471 4167 19518 1 149.00000 418.400000
11471 4168 22434 1 149.00000 418.400000
12482 4169 14515 1 149.00000 418.400000
12482 4170 15359 1 149.00000 418.400000
12482 4171 13794 1 149.00000 418.400000
17034 4172 19530 1 149.00000 418.400000
12483 4173 14464 1 149.00000 418.400000
12483 4174 14893 1 149.00000 418.400000
12483 4175 12488 1 149.00000 418.400000
12484 4176 16021 1 149.00000 418.400000
12484 4177 14693 1 149.00000 418.400000
12484 4178 13599 1 149.00000 418.400000
12485 4179 12617 1 149.00000 418.400000
12485 4180 15467 1 149.00000 418.400000
12485 4181 13560 1 149.00000 418.400000
12486 4182 12746 1 149.00000 418.400000
12486 4183 15508 1 149.00000 418.400000
12487 4184 20430 1 149.00000 418.400000
12487 4185 15193 1 149.00000 418.400000
12488 4186 15111 1 149.00000 418.400000
12488 4187 14962 1 149.00000 418.400000
12488 4188 15400 1 149.00000 418.400000
12489 4189 13318 1 149.00000 418.400000
12489 4190 15946 1 149.00000 418.400000
12490 4191 12739 1 149.00000 418.400000
12490 4192 14204 1 149.00000 418.400000
12490 4193 12778 1 149.00000 418.400000
12491 4194 12710 1 149.00000 418.400000
12491 4195 16278 1 149.00000 418.400000
12491 4196 13682 1 149.00000 418.400000
12492 4197 13701 1 149.00000 418.400000
12492 4198 15654 1 149.00000 418.400000
12492 4199 13627 1 149.00000 418.400000
12492 4200 15757 1 149.00000 418.400000
12493 4201 14262 1 149.00000 418.400000
12493 4202 15571 1 149.00000 418.400000
12493 4203 15110 1 149.00000 418.400000
12493 4204 16182 1 149.00000 418.400000
12494 4205 16336 1 149.00000 418.400000
12494 4206 13262 1 149.00000 418.400000
12494 4207 21597 1 149.00000 418.400000
16184 4208 19542 1 149.00000 418.400000
19542 4209 22161 1 149.00000 418.400000
12495 4210 12823 1 149.00000 418.400000
12495 4211 13113 1 149.00000 418.400000
12495 4212 14048 1 149.00000 418.400000
12496 4213 13758 1 149.00000 418.400000
12496 4214 14304 1 149.00000 418.400000
12496 4215 16178 1 149.00000 418.400000
12496 4216 13837 1 149.00000 418.400000
12497 4217 15947 1 149.00000 418.400000
12497 4218 16458 1 149.00000 418.400000
12497 4219 14331 1 149.00000 418.400000
12497 4220 13925 1 149.00000 418.400000
12498 4221 22224 1 149.00000 418.400000
12498 4222 12756 1 149.00000 418.400000
12498 4223 13151 1 149.00000 418.400000
12498 4224 20514 1 149.00000 418.400000
12499 4225 13631 1 149.00000 418.400000
12499 4226 14034 1 149.00000 418.400000
12499 4227 13501 1 149.00000 418.400000
12499 4228 13341 1 149.00000 418.400000
12500 4229 13585 1 149.00000 418.400000
12500 4230 14832 1 149.00000 418.400000
12500 4231 13665 1 149.00000 418.400000
12501 4232 12730 1 149.00000 418.400000
12501 4233 14514 1 149.00000 418.400000
12501 4234 15036 1 149.00000 418.400000
12501 4235 15550 1 149.00000 418.400000
12502 4236 21618 1 149.00000 418.400000
12503 4237 13251 1 149.00000 418.400000
12503 4238 22281 1 149.00000 418.400000
12503 4239 13262 1 149.00000 418.400000
12503 4240 15814 1 149.00000 418.400000
14925 4241 19554 1 149.00000 418.400000
13985 4242 19554 1 149.00000 418.400000
15883 4243 19554 1 149.00000 418.400000
12504 4244 12723 1 149.00000 418.400000
12504 4245 12551 1 149.00000 418.400000
12504 4246 15416 1 149.00000 418.400000
12504 4247 14782 1 149.00000 418.400000
12505 4248 15320 1 149.00000 418.400000
12505 4249 14125 1 149.00000 418.400000
12505 4250 13853 1 149.00000 418.400000
12505 4251 16278 1 149.00000 418.400000
12506 4252 15221 1 149.00000 418.400000
12506 4253 13075 1 149.00000 418.400000
12506 4254 13393 1 149.00000 418.400000
12507 4255 15068 1 149.00000 418.400000
12507 4256 14232 1 149.00000 418.400000
12507 4257 16230 1 149.00000 418.400000
12507 4258 15948 1 149.00000 418.400000
12508 4259 13569 1 149.00000 418.400000
12508 4260 13713 1 149.00000 418.400000
12508 4261 14686 1 149.00000 418.400000
12509 4262 12640 1 149.00000 418.400000
12509 4263 14909 1 149.00000 418.400000
12509 4264 16484 1 149.00000 418.400000
12509 4265 15867 1 149.00000 418.400000
12510 4266 14272 1 149.00000 418.400000
12510 4267 13268 1 149.00000 418.400000
12510 4268 15272 1 149.00000 418.400000
12510 4269 14960 1 149.00000 418.400000
12511 4270 16656 1 149.00000 418.400000
12511 4271 13813 1 149.00000 418.400000
12512 4272 12517 1 149.00000 418.400000
12512 4273 15388 1 149.00000 418.400000
12512 4274 15171 1 149.00000 418.400000
12512 4275 15246 1 149.00000 418.400000
12513 4276 14907 1 149.00000 418.400000
12513 4277 16398 1 149.00000 418.400000
12514 4278 20886 1 149.00000 418.400000
12514 4279 15798 1 149.00000 418.400000
12514 4280 13777 1 149.00000 418.400000
12514 4281 16838 1 149.00000 418.400000
12515 4282 15393 1 149.00000 418.400000
12515 4283 16367 1 149.00000 418.400000
12516 4284 14898 1 149.00000 418.400000
12568 4285 14898 1 149.00000 418.400000
12516 4286 13088 1 149.00000 418.400000
12517 4287 14875 1 149.00000 418.400000
12517 4288 12657 1 149.00000 418.400000
12517 4289 14510 1 149.00000 418.400000
12518 4290 16515 1 149.00000 418.400000
12518 4291 12986 1 149.00000 418.400000
12518 4292 22254 1 149.00000 418.400000
12518 4293 13094 1 149.00000 418.400000
12519 4294 13941 1 149.00000 418.400000
11520 4295 13800 1 149.00000 418.400000
12519 4296 14494 1 149.00000 418.400000
12520 4297 13333 1 149.00000 418.400000
12520 4298 16001 1 149.00000 418.400000
12521 4299 14369 1 149.00000 418.400000
12521 4300 16388 1 149.00000 418.400000
12521 4301 14901 1 149.00000 418.400000
12522 4302 12598 1 149.00000 418.400000
12598 4303 14849 1 149.00000 418.400000
12522 4304 16908 1 149.00000 418.400000
12523 4305 15118 1 149.00000 418.400000
12523 4306 13522 1 149.00000 418.400000
12523 4307 13574 1 149.00000 418.400000
12523 4308 15635 1 149.00000 418.400000
12524 4309 12557 1 149.00000 418.400000
12524 4310 14493 1 149.00000 418.400000
12524 4311 15505 1 149.00000 418.400000
12525 4312 13023 1 149.00000 418.400000
12525 4313 16135 1 149.00000 418.400000
12526 4314 15272 1 149.00000 418.400000
12526 4315 13989 1 149.00000 418.400000
12526 4316 16051 1 149.00000 418.400000
12527 4317 16054 1 149.00000 418.400000
12527 4318 17286 1 149.00000 418.400000
12527 4319 13705 1 149.00000 418.400000
13705 4320 16345 1 149.00000 418.400000
12528 4321 13544 1 149.00000 418.400000
12528 4322 12665 1 149.00000 418.400000
12528 4323 14713 1 149.00000 418.400000
12528 4324 13727 1 149.00000 418.400000
12529 4325 21663 1 149.00000 418.400000
12529 4326 16361 1 149.00000 418.400000
12530 4327 12830 1 149.00000 418.400000
12530 4328 14953 1 149.00000 418.400000
12530 4329 14705 1 149.00000 418.400000
12530 4330 21687 1 149.00000 418.400000
12531 4331 14941 1 149.00000 418.400000
12328 4332 12531 1 149.00000 418.400000
12531 4333 15734 1 149.00000 418.400000
12531 4334 15080 1 149.00000 418.400000
12532 4335 14390 1 149.00000 418.400000
12532 4336 13590 1 149.00000 418.400000
12532 4337 16151 1 149.00000 418.400000
19566 4338 20478 1 149.00000 418.400000
15943 4339 19566 1 149.00000 418.400000
19566 4340 21723 1 149.00000 418.400000
12533 4341 15167 1 149.00000 418.400000
12533 4342 16440 1 149.00000 418.400000
12533 4343 14780 1 149.00000 418.400000
12533 4344 14534 1 149.00000 418.400000
12534 4345 14857 1 149.00000 418.400000
12534 4346 13973 1 149.00000 418.400000
12534 4347 14207 1 149.00000 418.400000
12534 4348 15363 1 149.00000 418.400000
12535 4349 13074 1 149.00000 418.400000
12535 4350 14428 1 149.00000 418.400000
12535 4351 15376 1 149.00000 418.400000
12535 4352 15053 1 149.00000 418.400000
12536 4353 13479 1 149.00000 418.400000
12536 4354 12910 1 149.00000 418.400000
12536 4355 14738 1 149.00000 418.400000
12536 4356 14283 1 149.00000 418.400000
12537 4357 15986 1 149.00000 418.400000
12537 4358 15338 1 149.00000 418.400000
12537 4359 13358 1 149.00000 418.400000
12537 4360 15954 1 149.00000 418.400000
12538 4361 15857 1 149.00000 418.400000
12538 4362 13693 1 149.00000 418.400000
12538 4363 17692 1 149.00000 418.400000
12538 4364 12607 1 149.00000 418.400000
12539 4365 16257 1 149.00000 418.400000
12539 4366 13426 1 149.00000 418.400000
12539 4367 22065 1 149.00000 418.400000
12539 4368 12991 1 149.00000 418.400000
12540 4369 15163 1 149.00000 418.400000
12540 4370 15239 1 149.00000 418.400000
12540 4371 12588 1 149.00000 418.400000
12541 4372 15643 1 149.00000 418.400000
12541 4373 16111 1 149.00000 418.400000
13268 4374 21507 1 149.00000 418.400000
12542 4375 14337 1 149.00000 418.400000
12542 4376 13701 1 149.00000 418.400000
12543 4377 14851 1 149.00000 418.400000
12543 4378 17118 1 149.00000 418.400000
12543 4379 15697 1 149.00000 418.400000
12544 4380 15944 1 149.00000 418.400000
12544 4381 12727 1 149.00000 418.400000
12545 4382 13608 1 149.00000 418.400000
12545 4383 13572 1 149.00000 418.400000
12545 4384 16479 1 149.00000 418.400000
12546 4385 16167 1 149.00000 418.400000
12546 4386 15980 1 149.00000 418.400000
12546 4387 14948 1 149.00000 418.400000
12546 4388 15228 1 149.00000 418.400000
12547 4389 15799 1 149.00000 418.400000
12547 4390 14641 1 149.00000 418.400000
12548 4391 21753 1 149.00000 418.400000
12687 4392 21753 1 149.00000 418.400000
12548 4393 13258 1 149.00000 418.400000
12549 4394 15491 1 149.00000 418.400000
12549 4395 14062 1 149.00000 418.400000
12549 4396 14745 1 149.00000 418.400000
12549 4397 14160 1 149.00000 418.400000
15952 4398 19578 1 149.00000 418.400000
14091 4399 19578 1 149.00000 418.400000
14643 4400 19578 1 149.00000 418.400000
12550 4401 14887 1 149.00000 418.400000
12550 4402 14022 1 149.00000 418.400000
12550 4403 15749 1 149.00000 418.400000
12551 4404 16213 1 149.00000 418.400000
12551 4405 14808 1 149.00000 418.400000
12551 4406 13908 1 149.00000 418.400000
12552 4407 13624 1 149.00000 418.400000
12552 4408 14617 1 149.00000 418.400000
12552 4409 14912 1 149.00000 418.400000
12553 4410 15957 1 149.00000 418.400000
12553 4411 13196 1 149.00000 418.400000
12553 4412 13404 1 149.00000 418.400000
12554 4413 16410 1 149.00000 418.400000
12554 4414 16342 1 149.00000 418.400000
12554 4415 14792 1 149.00000 418.400000
12554 4416 15973 1 149.00000 418.400000
12555 4417 13568 1 149.00000 418.400000
12555 4418 19686 1 149.00000 418.400000
12259 4419 16922 1 149.00000 418.400000
12556 4420 12618 1 149.00000 418.400000
12556 4421 14406 1 149.00000 418.400000
12556 4422 12631 1 149.00000 418.400000
12557 4423 16090 1 149.00000 418.400000
12557 4424 15167 1 149.00000 418.400000
12558 4425 21783 1 149.00000 418.400000
12558 4426 15107 1 149.00000 418.400000
12558 4427 20286 1 149.00000 418.400000
12559 4428 14327 1 149.00000 418.400000
12559 4429 12969 1 149.00000 418.400000
12559 4430 13181 1 149.00000 418.400000
12559 4431 16524 1 149.00000 418.400000
19590 4432 22296 1 149.00000 418.400000
13379 4433 19590 1 149.00000 418.400000
14366 4434 19590 1 149.00000 418.400000
12560 4435 13175 1 149.00000 418.400000
12561 4436 14098 1 149.00000 418.400000
12561 4437 22200 1 149.00000 418.400000
12561 4438 15327 1 149.00000 418.400000
12561 4439 22050 1 149.00000 418.400000
12562 4440 14498 1 149.00000 418.400000
12562 4441 13123 1 149.00000 418.400000
12563 4442 14043 1 149.00000 418.400000
12563 4443 13086 1 149.00000 418.400000
11448 4444 12563 1 149.00000 418.400000
12563 4445 16388 1 149.00000 418.400000
12564 4446 21975 1 149.00000 418.400000
12564 4447 15225 1 149.00000 418.400000
12564 4448 16513 1 149.00000 418.400000
12564 4449 12976 1 149.00000 418.400000
12565 4450 15656 1 149.00000 418.400000
12565 4451 15257 1 149.00000 418.400000
12565 4452 16319 1 149.00000 418.400000
12566 4453 14053 1 149.00000 418.400000
12566 4454 19902 1 149.00000 418.400000
12566 4455 13477 1 149.00000 418.400000
12567 4456 15105 1 149.00000 418.400000
12567 4457 13019 1 149.00000 418.400000
12567 4458 12708 1 149.00000 418.400000
12568 4459 12884 1 149.00000 418.400000
12568 4460 13573 1 149.00000 418.400000
12569 4461 14160 1 149.00000 418.400000
12569 4462 12599 1 149.00000 418.400000
11586 4463 12569 1 149.00000 418.400000
12570 4464 13038 1 149.00000 418.400000
12570 4465 16049 1 149.00000 418.400000
12571 4466 13058 1 149.00000 418.400000
12571 4467 14365 1 149.00000 418.400000
12571 4468 13233 1 149.00000 418.400000
12572 4469 16045 1 149.00000 418.400000
12572 4470 14287 1 149.00000 418.400000
12572 4471 15324 1 149.00000 418.400000
12572 4472 14471 1 149.00000 418.400000
12573 4473 14504 1 149.00000 418.400000
12573 4474 14812 1 149.00000 418.400000
12573 4475 14419 1 149.00000 418.400000
12574 4476 15366 1 149.00000 418.400000
12574 4477 16487 1 149.00000 418.400000
12574 4478 16044 1 149.00000 418.400000
19602 4479 22035 1 149.00000 418.400000
14356 4480 16086 1 149.00000 418.400000
16086 4481 19602 1 149.00000 418.400000
12575 4482 13610 1 149.00000 418.400000
12575 4483 13755 1 149.00000 418.400000
12575 4484 14312 1 149.00000 418.400000
12575 4485 16299 1 149.00000 418.400000
12576 4486 15416 1 149.00000 418.400000
12576 4487 15097 1 149.00000 418.400000
12576 4488 13614 1 149.00000 418.400000
12576 4489 16437 1 149.00000 418.400000
12577 4490 14103 1 149.00000 418.400000
12577 4491 16076 1 149.00000 418.400000
12577 4492 13023 1 149.00000 418.400000
12577 4493 14558 1 149.00000 418.400000
12578 4494 14999 1 149.00000 418.400000
14561 4495 15892 1 149.00000 418.400000
12578 4496 14561 1 149.00000 418.400000
12578 4497 22143 1 149.00000 418.400000
12579 4498 13418 1 149.00000 418.400000
12579 4499 13102 1 149.00000 418.400000
12579 4500 15486 1 149.00000 418.400000
12580 4501 15672 1 149.00000 418.400000
12580 4502 16427 1 149.00000 418.400000
12580 4503 16368 1 149.00000 418.400000
12581 4504 15908 1 149.00000 418.400000
12581 4505 16053 1 149.00000 418.400000
12581 4506 14944 1 149.00000 418.400000
12582 4507 16124 1 149.00000 418.400000
12582 4508 16341 1 149.00000 418.400000
14669 4509 19626 1 149.00000 418.400000
19626 4510 22089 1 149.00000 418.400000
13179 4511 19638 1 149.00000 418.400000
13991 4512 19638 1 149.00000 418.400000
19638 4513 20970 1 149.00000 418.400000
13460 4514 21366 1 149.00000 418.400000
14417 4515 19650 1 149.00000 418.400000
19650 4516 21627 1 149.00000 418.400000
19650 4517 22260 1 149.00000 418.400000
12583 4518 15596 1 149.00000 418.400000
12583 4519 22296 1 149.00000 418.400000
12583 4520 16391 1 149.00000 418.400000
12583 4521 12807 1 149.00000 418.400000
12584 4522 14924 1 149.00000 418.400000
12584 4523 15174 1 149.00000 418.400000
12585 4524 15375 1 149.00000 418.400000
12585 4525 14205 1 149.00000 418.400000
12586 4526 13351 1 149.00000 418.400000
12586 4527 15674 1 149.00000 418.400000
11643 4528 12586 1 149.00000 418.400000
12586 4529 15783 1 149.00000 418.400000
12587 4530 16242 1 149.00000 418.400000
12588 4531 16291 1 149.00000 418.400000
12588 4532 16359 1 149.00000 418.400000
11969 4533 12588 1 149.00000 418.400000
12589 4534 22002 1 149.00000 418.400000
12589 4535 14293 1 149.00000 418.400000
12590 4536 15113 1 149.00000 418.400000
12590 4537 14996 1 149.00000 418.400000
12590 4538 16079 1 149.00000 418.400000
12591 4539 21867 1 149.00000 418.400000
12592 4540 14570 1 149.00000 418.400000
12592 4541 15782 1 149.00000 418.400000
12592 4542 15044 1 149.00000 418.400000
12593 4543 13944 1 149.00000 418.400000
12593 4544 14000 1 149.00000 418.400000
12593 4545 12751 1 149.00000 418.400000
12594 4546 14253 1 149.00000 418.400000
12594 4547 13236 1 149.00000 418.400000
12594 4548 14202 1 149.00000 418.400000
12594 4549 16304 1 149.00000 418.400000
12595 4550 22101 1 149.00000 418.400000
12595 4551 14416 1 149.00000 418.400000
12595 4552 15189 1 149.00000 418.400000
21669 4553 21813 1 149.00000 418.400000
12596 4554 13128 1 149.00000 418.400000
12596 4555 16318 1 149.00000 418.400000
12596 4556 21813 1 149.00000 418.400000
12597 4557 12648 1 149.00000 418.400000
12597 4558 16080 1 149.00000 418.400000
12597 4559 13863 1 149.00000 418.400000
12522 4560 16401 1 149.00000 418.400000
12598 4561 16417 1 149.00000 418.400000
12598 4562 14749 1 149.00000 418.400000
12599 4563 14153 1 149.00000 418.400000
12599 4564 13269 1 149.00000 418.400000
12600 4565 22098 1 149.00000 418.400000
12600 4566 15407 1 149.00000 418.400000
12601 4567 15467 1 149.00000 418.400000
12602 4568 14238 1 149.00000 418.400000
12602 4569 13308 1 149.00000 418.400000
12602 4570 16471 1 149.00000 418.400000
12602 4571 12743 1 149.00000 418.400000
12603 4572 14966 1 149.00000 418.400000
12603 4573 15659 1 149.00000 418.400000
12603 4574 15045 1 149.00000 418.400000
12604 4575 15169 1 149.00000 418.400000
12604 4576 21366 1 149.00000 418.400000
12604 4577 16922 1 149.00000 418.400000
12604 4578 13116 1 149.00000 418.400000
12605 4579 13550 1 149.00000 418.400000
12605 4580 15280 1 149.00000 418.400000
12605 4581 14622 1 149.00000 418.400000
12605 4582 15410 1 149.00000 418.400000
12606 4583 13277 1 149.00000 418.400000
13277 4584 22014 1 149.00000 418.400000
12607 4585 16000 1 149.00000 418.400000
14657 4586 19662 1 149.00000 418.400000
19662 4587 22389 1 149.00000 418.400000
14397 4588 19662 1 149.00000 418.400000
15314 4589 20310 1 149.00000 418.400000
13048 4590 15314 1 149.00000 418.400000
12608 4591 15314 1 149.00000 418.400000
13711 4592 15314 1 149.00000 418.400000
14644 4593 15078 1 149.00000 418.400000
12609 4594 14922 1 149.00000 418.400000
12609 4595 15078 1 149.00000 418.400000
12610 4596 12925 1 149.00000 418.400000
12610 4597 15525 1 149.00000 418.400000
12610 4598 15450 1 149.00000 418.400000
12611 4599 13857 1 149.00000 418.400000
12611 4600 12725 1 149.00000 418.400000
12611 4601 15169 1 149.00000 418.400000
12611 4602 15146 1 149.00000 418.400000
16154 4603 19674 1 149.00000 418.400000
19674 4604 22269 1 149.00000 418.400000
12612 4605 15899 1 149.00000 418.400000
12612 4606 12660 1 149.00000 418.400000
16203 4607 21606 1 149.00000 418.400000
15448 4608 21606 1 149.00000 418.400000
12613 4609 13367 1 149.00000 418.400000
12613 4610 15357 1 149.00000 418.400000
12613 4611 15633 1 149.00000 418.400000
12613 4612 15673 1 149.00000 418.400000
12614 4613 15894 1 149.00000 418.400000
12614 4614 14197 1 149.00000 418.400000
12614 4615 14873 1 149.00000 418.400000
12614 4616 15361 1 149.00000 418.400000
12615 4617 12709 1 149.00000 418.400000
12615 4618 14852 1 149.00000 418.400000
12615 4619 15410 1 149.00000 418.400000
12616 4620 15716 1 149.00000 418.400000
12616 4621 13454 1 149.00000 418.400000
12616 4622 14400 1 149.00000 418.400000
19686 4623 21960 1 149.00000 418.400000
11482 4624 19686 1 149.00000 418.400000
12485 4625 14350 1 149.00000 418.400000
12617 4626 14742 1 149.00000 418.400000
12617 4627 13060 1 149.00000 418.400000
12618 4628 15213 1 149.00000 418.400000
12618 4629 13780 1 149.00000 418.400000
12619 4630 13400 1 149.00000 418.400000
12619 4631 15194 1 149.00000 418.400000
12619 4632 13106 1 149.00000 418.400000
12619 4633 14567 1 149.00000 418.400000
12620 4634 13785 1 149.00000 418.400000
12620 4635 15731 1 149.00000 418.400000
16444 4636 19698 1 149.00000 418.400000
13472 4637 19698 1 149.00000 418.400000
12970 4638 19698 1 149.00000 418.400000
11488 4639 16285 1 149.00000 418.400000
11488 4640 13865 1 149.00000 418.400000
12622 4641 16058 1 149.00000 418.400000
12622 4642 15302 1 149.00000 418.400000
12622 4643 14924 1 149.00000 418.400000
12622 4644 13513 1 149.00000 418.400000
12623 4645 14173 1 149.00000 418.400000
12623 4646 15903 1 149.00000 418.400000
12623 4647 16495 1 149.00000 418.400000
12624 4648 19722 1 149.00000 418.400000
12624 4649 12637 1 149.00000 418.400000
12624 4650 20586 1 149.00000 418.400000
12625 4651 16082 1 149.00000 418.400000
12625 4652 16345 1 149.00000 418.400000
12625 4653 13040 1 149.00000 418.400000
12626 4654 12828 1 149.00000 418.400000
12626 4655 14018 1 149.00000 418.400000
12626 4656 13259 1 149.00000 418.400000
12626 4657 15686 1 149.00000 418.400000
12627 4658 13665 1 149.00000 418.400000
12627 4659 15101 1 149.00000 418.400000
12628 4660 16472 1 149.00000 418.400000
12628 4661 16514 1 149.00000 418.400000
12628 4662 15816 1 149.00000 418.400000
12628 4663 13049 1 149.00000 418.400000
12629 4664 13830 1 149.00000 418.400000
12629 4665 15577 1 149.00000 418.400000
12629 4666 15345 1 149.00000 418.400000
12630 4667 16431 1 149.00000 418.400000
12630 4668 16193 1 149.00000 418.400000
12630 4669 15376 1 149.00000 418.400000
12630 4670 12984 1 149.00000 418.400000
12631 4671 14817 1 149.00000 418.400000
12631 4672 14314 1 149.00000 418.400000
12631 4673 15651 1 149.00000 418.400000
12632 4674 14215 1 149.00000 418.400000
12632 4675 13576 1 149.00000 418.400000
13904 4676 15266 1 149.00000 418.400000
12632 4677 15266 1 149.00000 418.400000
12633 4678 12853 1 149.00000 418.400000
12633 4679 13561 1 149.00000 418.400000
12633 4680 16135 1 149.00000 418.400000
12633 4681 16128 1 149.00000 418.400000
12634 4682 16232 1 149.00000 418.400000
12634 4683 16305 1 149.00000 418.400000
12635 4684 14187 1 149.00000 418.400000
12635 4685 13095 1 149.00000 418.400000
12635 4686 14340 1 149.00000 418.400000
12635 4687 13054 1 149.00000 418.400000
12636 4688 21882 1 149.00000 418.400000
12636 4689 14715 1 149.00000 418.400000
12636 4690 12747 1 149.00000 418.400000
19710 4691 21759 1 149.00000 418.400000
19710 4692 21516 1 149.00000 418.400000
14942 4693 19710 1 149.00000 418.400000
12637 4694 15742 1 149.00000 418.400000
12637 4695 16056 1 149.00000 418.400000
12638 4696 13246 1 149.00000 418.400000
12638 4697 15771 1 149.00000 418.400000
12639 4698 15129 1 149.00000 418.400000
12639 4699 15415 1 149.00000 418.400000
13945 4700 19722 1 149.00000 418.400000
16950 4701 19722 1 149.00000 418.400000
12640 4702 15485 1 149.00000 418.400000
12640 4703 13264 1 149.00000 418.400000
12640 4704 14148 1 149.00000 418.400000
12641 4705 13779 1 149.00000 418.400000
12641 4706 15130 1 149.00000 418.400000
12641 4707 21633 1 149.00000 418.400000
12642 4708 13787 1 149.00000 418.400000
12642 4709 20010 1 149.00000 418.400000
12642 4710 15011 1 149.00000 418.400000
12643 4711 14583 1 149.00000 418.400000
12643 4712 14053 1 149.00000 418.400000
12643 4713 12658 1 149.00000 418.400000
12643 4714 14985 1 149.00000 418.400000
12644 4715 13054 1 149.00000 418.400000
12644 4716 14410 1 149.00000 418.400000
12645 4717 13156 1 149.00000 418.400000
12645 4718 16233 1 149.00000 418.400000
12645 4719 15541 1 149.00000 418.400000
12645 4720 13814 1 149.00000 418.400000
12646 4721 13459 1 149.00000 418.400000
12646 4722 12697 1 149.00000 418.400000
12646 4723 12655 1 149.00000 418.400000
12646 4724 13611 1 149.00000 418.400000
12647 4725 16065 1 149.00000 418.400000
12647 4726 16392 1 149.00000 418.400000
12647 4727 15856 1 149.00000 418.400000
12647 4728 14793 1 149.00000 418.400000
12648 4729 13252 1 149.00000 418.400000
12648 4730 13177 1 149.00000 418.400000
12648 4731 14149 1 149.00000 418.400000
12649 4732 14263 1 149.00000 418.400000
12649 4733 22350 1 149.00000 418.400000
12649 4734 12764 1 149.00000 418.400000
12649 4735 22245 1 149.00000 418.400000
14068 4736 19734 1 149.00000 418.400000
13881 4737 19734 1 149.00000 418.400000
12650 4738 14717 1 149.00000 418.400000
12650 4739 15599 1 149.00000 418.400000
12650 4740 16085 1 149.00000 418.400000
12650 4741 13213 1 149.00000 418.400000
12651 4742 14127 1 149.00000 418.400000
12651 4743 13892 1 149.00000 418.400000
12651 4744 12714 1 149.00000 418.400000
12652 4745 16100 1 149.00000 418.400000
12652 4746 13091 1 149.00000 418.400000
12653 4747 14427 1 149.00000 418.400000
12653 4748 16131 1 149.00000 418.400000
12653 4749 15414 1 149.00000 418.400000
12654 4750 12884 1 149.00000 418.400000
12654 4751 13645 1 149.00000 418.400000
12655 4752 13639 1 149.00000 418.400000
12655 4753 15090 1 149.00000 418.400000
12655 4754 16015 1 149.00000 418.400000
13930 4755 16015 1 149.00000 418.400000
12656 4756 12874 1 149.00000 418.400000
12656 4757 15957 1 149.00000 418.400000
12656 4758 14586 1 149.00000 418.400000
12657 4759 15924 1 149.00000 418.400000
13860 4760 14313 1 149.00000 418.400000
12657 4761 14313 1 149.00000 418.400000
12658 4762 13661 1 149.00000 418.400000
12658 4763 16057 1 149.00000 418.400000
12658 4764 12928 1 149.00000 418.400000
12659 4765 14995 1 149.00000 418.400000
12660 4766 15095 1 149.00000 418.400000
12660 4767 15318 1 149.00000 418.400000
12660 4768 15343 1 149.00000 418.400000
12661 4769 14083 1 149.00000 418.400000
12661 4770 14295 1 149.00000 418.400000
19746 4771 21585 1 149.00000 418.400000
13969 4772 19746 1 149.00000 418.400000
12662 4773 21837 1 149.00000 418.400000
12662 4774 12894 1 149.00000 418.400000
12662 4775 13120 1 149.00000 418.400000
12662 4776 21852 1 149.00000 418.400000
12663 4777 21042 1 149.00000 418.400000
12663 4778 13298 1 149.00000 418.400000
12663 4779 22287 1 149.00000 418.400000
12663 4780 12719 1 149.00000 418.400000
12664 4781 15649 1 149.00000 418.400000
12664 4782 15198 1 149.00000 418.400000
13735 4783 15649 1 149.00000 418.400000
12665 4784 16061 1 149.00000 418.400000
12665 4785 21525 1 149.00000 418.400000
12666 4786 16290 1 149.00000 418.400000
12666 4787 12934 1 149.00000 418.400000
12666 4788 14390 1 149.00000 418.400000
12380 4789 12667 1 149.00000 418.400000
12668 4790 15991 1 149.00000 418.400000
12668 4791 13594 1 149.00000 418.400000
12668 4792 19806 1 149.00000 418.400000
12669 4793 13840 1 149.00000 418.400000
12669 4794 13207 1 149.00000 418.400000
13077 4795 19758 1 149.00000 418.400000
12670 4796 14983 1 149.00000 418.400000
12670 4797 13720 1 149.00000 418.400000
12670 4798 15305 1 149.00000 418.400000
12670 4799 14842 1 149.00000 418.400000
12671 4800 16032 1 149.00000 418.400000
12672 4801 13091 1 149.00000 418.400000
13091 4802 16179 1 149.00000 418.400000
12672 4803 14983 1 149.00000 418.400000
12673 4804 15836 1 149.00000 418.400000
12673 4805 14777 1 149.00000 418.400000
12084 4806 13007 1 149.00000 418.400000
13575 4807 19770 1 149.00000 418.400000
14651 4808 19770 1 149.00000 418.400000
19770 4809 21966 1 149.00000 418.400000
12674 4810 13906 1 149.00000 418.400000
13906 4811 17258 1 149.00000 418.400000
12674 4812 15356 1 149.00000 418.400000
14711 4813 19782 1 149.00000 418.400000
13397 4814 19782 1 149.00000 418.400000
12675 4815 15219 1 149.00000 418.400000
12675 4816 14739 1 149.00000 418.400000
19794 4817 21651 1 149.00000 418.400000
12676 4818 15874 1 149.00000 418.400000
12676 4819 13476 1 149.00000 418.400000
12676 4820 15331 1 149.00000 418.400000
12677 4821 12790 1 149.00000 418.400000
12677 4822 13934 1 149.00000 418.400000
12677 4823 14026 1 149.00000 418.400000
12677 4824 14967 1 149.00000 418.400000
12678 4825 15788 1 149.00000 418.400000
12678 4826 15752 1 149.00000 418.400000
12678 4827 14375 1 149.00000 418.400000
12679 4828 14001 1 149.00000 418.400000
12679 4829 12974 1 149.00000 418.400000
12679 4830 15468 1 149.00000 418.400000
12680 4831 16254 1 149.00000 418.400000
12680 4832 14792 1 149.00000 418.400000
12680 4833 15669 1 149.00000 418.400000
12680 4834 12998 1 149.00000 418.400000
12681 4835 14917 1 149.00000 418.400000
12681 4836 16486 1 149.00000 418.400000
12681 4837 13276 1 149.00000 418.400000
12682 4838 13901 1 149.00000 418.400000
12682 4839 13270 1 149.00000 418.400000
12682 4840 14845 1 149.00000 418.400000
12683 4841 13857 1 149.00000 418.400000
12683 4842 14838 1 149.00000 418.400000
12683 4843 14498 1 149.00000 418.400000
12683 4844 13173 1 149.00000 418.400000
12684 4845 13072 1 149.00000 418.400000
12684 4846 13707 1 149.00000 418.400000
12684 4847 14758 1 149.00000 418.400000
15851 4848 22137 1 149.00000 418.400000
12685 4849 15851 1 149.00000 418.400000
12686 4850 14568 1 149.00000 418.400000
12686 4851 13981 1 149.00000 418.400000
12686 4852 15964 1 149.00000 418.400000
12687 4853 22200 1 149.00000 418.400000
12687 4854 14422 1 149.00000 418.400000
12687 4855 14895 1 149.00000 418.400000
12688 4856 15897 1 149.00000 418.400000
12688 4857 15806 1 149.00000 418.400000
12689 4858 16115 1 149.00000 418.400000
12689 4859 13343 1 149.00000 418.400000
12107 4860 14777 1 149.00000 418.400000
13261 4861 19818 1 149.00000 418.400000
13175 4862 19818 1 149.00000 418.400000
12690 4863 15916 1 149.00000 418.400000
12690 4864 16199 1 149.00000 418.400000
12690 4865 14598 1 149.00000 418.400000
12690 4866 16523 1 149.00000 418.400000
12691 4867 14897 1 149.00000 418.400000
12691 4868 15175 1 149.00000 418.400000
12691 4869 15159 1 149.00000 418.400000
12692 4870 21390 1 149.00000 418.400000
12692 4871 14855 1 149.00000 418.400000
12693 4872 14994 1 149.00000 418.400000
12694 4873 13730 1 149.00000 418.400000
12694 4874 14998 1 149.00000 418.400000
12694 4875 14292 1 149.00000 418.400000
12695 4876 12745 1 149.00000 418.400000
12695 4877 15533 1 149.00000 418.400000
12695 4878 13432 1 149.00000 418.400000
15717 4879 19830 1 149.00000 418.400000
12696 4880 13571 1 149.00000 418.400000
12696 4881 16222 1 149.00000 418.400000
12696 4882 13538 1 149.00000 418.400000
12697 4883 13726 1 149.00000 418.400000
12697 4884 13818 1 149.00000 418.400000
12697 4885 14614 1 149.00000 418.400000
14933 4886 19842 1 149.00000 418.400000
12698 4887 16491 1 149.00000 418.400000
12698 4888 13030 1 149.00000 418.400000
12698 4889 15897 1 149.00000 418.400000
12698 4890 14856 1 149.00000 418.400000
12699 4891 12873 1 149.00000 418.400000
12699 4892 14410 1 149.00000 418.400000
12699 4893 14340 1 149.00000 418.400000
19854 4894 21696 1 149.00000 418.400000
13361 4895 19866 1 149.00000 418.400000
19866 4896 21660 1 149.00000 418.400000
12700 4897 15423 1 149.00000 418.400000
12700 4898 13845 1 149.00000 418.400000
14184 4899 15975 1 149.00000 418.400000
12701 4900 14184 1 149.00000 418.400000
12701 4901 12837 1 149.00000 418.400000
12702 4902 13181 1 149.00000 418.400000
12702 4903 14973 1 149.00000 418.400000
12702 4904 14316 1 149.00000 418.400000
12702 4905 13253 1 149.00000 418.400000
12703 4906 14061 1 149.00000 418.400000
12703 4907 13769 1 149.00000 418.400000
12703 4908 13172 1 149.00000 418.400000
12703 4909 15349 1 149.00000 418.400000
12704 4910 16285 1 149.00000 418.400000
12704 4911 16246 1 149.00000 418.400000
12704 4912 13381 1 149.00000 418.400000
12704 4913 14792 1 149.00000 418.400000
12705 4914 15045 1 149.00000 418.400000
12705 4915 13625 1 149.00000 418.400000
12705 4916 16282 1 149.00000 418.400000
12705 4917 15420 1 149.00000 418.400000
12706 4918 14221 1 149.00000 418.400000
12706 4919 15268 1 149.00000 418.400000
12706 4920 13525 1 149.00000 418.400000
12706 4921 15486 1 149.00000 418.400000
13382 4922 16530 1 149.00000 418.400000
12707 4923 15102 1 149.00000 418.400000
12707 4924 12845 1 149.00000 418.400000
12707 4925 14497 1 149.00000 418.400000
12708 4926 13722 1 149.00000 418.400000
12708 4927 12909 1 149.00000 418.400000
12708 4928 12950 1 149.00000 418.400000
12709 4929 22131 1 149.00000 418.400000
12709 4930 20886 1 149.00000 418.400000
12710 4931 16386 1 149.00000 418.400000
14176 4932 19878 1 149.00000 418.400000
12711 4933 13708 1 149.00000 418.400000
12711 4934 14774 1 149.00000 418.400000
12711 4935 14488 1 149.00000 418.400000
12711 4936 15887 1 149.00000 418.400000
13217 4937 14950 1 149.00000 418.400000
19890 4938 21354 1 149.00000 418.400000
14950 4939 19890 1 149.00000 418.400000
15864 4940 16157 1 149.00000 418.400000
12712 4941 13070 1 149.00000 418.400000
12712 4942 16157 1 149.00000 418.400000
12712 4943 14701 1 149.00000 418.400000
12713 4944 15616 1 149.00000 418.400000
12713 4945 14104 1 149.00000 418.400000
12713 4946 14898 1 149.00000 418.400000
12714 4947 13037 1 149.00000 418.400000
12714 4948 16246 1 149.00000 418.400000
12714 4949 13326 1 149.00000 418.400000
12715 4950 15517 1 149.00000 418.400000
12715 4951 15478 1 149.00000 418.400000
12715 4952 21906 1 149.00000 418.400000
12715 4953 15296 1 149.00000 418.400000
12716 4954 15109 1 149.00000 418.400000
12716 4955 22209 1 149.00000 418.400000
12716 4956 20202 1 149.00000 418.400000
12717 4957 15508 1 149.00000 418.400000
12717 4958 15071 1 149.00000 418.400000
12717 4959 13591 1 149.00000 418.400000
12717 4960 14228 1 149.00000 418.400000
16084 4961 19902 1 149.00000 418.400000
12718 4962 14458 1 149.00000 418.400000
12718 4963 21798 1 149.00000 418.400000
12719 4964 14183 1 149.00000 418.400000
12719 4965 15883 1 149.00000 418.400000
12719 4966 14982 1 149.00000 418.400000
12720 4967 15889 1 149.00000 418.400000
12720 4968 15691 1 149.00000 418.400000
12721 4969 16168 1 149.00000 418.400000
12721 4970 16036 1 149.00000 418.400000
12721 4971 20274 1 149.00000 418.400000
12722 4972 15263 1 149.00000 418.400000
12722 4973 13139 1 149.00000 418.400000
12722 4974 14242 1 149.00000 418.400000
12722 4975 15132 1 149.00000 418.400000
12723 4976 16300 1 149.00000 418.400000
12723 4977 16413 1 149.00000 418.400000
12723 4978 16270 1 149.00000 418.400000
12724 4979 15703 1 149.00000 418.400000
12724 4980 14198 1 149.00000 418.400000
19914 4981 21318 1 149.00000 418.400000
13467 4982 19914 1 149.00000 418.400000
12725 4983 14828 1 149.00000 418.400000
12725 4984 14094 1 149.00000 418.400000
12725 4985 13545 1 149.00000 418.400000
12726 4986 13475 1 149.00000 418.400000
12726 4987 13522 1 149.00000 418.400000
12726 4988 16115 1 149.00000 418.400000
12727 4989 14312 1 149.00000 418.400000
15961 4990 19926 1 149.00000 418.400000
19926 4991 21198 1 149.00000 418.400000
12728 4992 16245 1 149.00000 418.400000
12728 4993 14005 1 149.00000 418.400000
19938 4994 21912 1 149.00000 418.400000
13337 4995 19938 1 149.00000 418.400000
14539 4996 19950 1 149.00000 418.400000
12761 4997 19950 1 149.00000 418.400000
12729 4998 13943 1 149.00000 418.400000
12729 4999 14370 1 149.00000 418.400000
12729 5000 20910 1 149.00000 418.400000
12729 5001 18000 1 149.00000 418.400000
12730 5002 13733 1 149.00000 418.400000
12730 5003 15223 1 149.00000 418.400000
12730 5004 13475 1 149.00000 418.400000
12731 5005 14170 1 149.00000 418.400000
12731 5006 13900 1 149.00000 418.400000
12731 5007 13183 1 149.00000 418.400000
12732 5008 12787 1 149.00000 418.400000
12732 5009 14549 1 149.00000 418.400000
12733 5010 13706 1 149.00000 418.400000
13706 5011 15227 1 149.00000 418.400000
16238 5012 16331 1 149.00000 418.400000
12733 5013 16238 1 149.00000 418.400000
12734 5014 14232 1 149.00000 418.400000
12734 5015 16343 1 149.00000 418.400000
12734 5016 15202 1 149.00000 418.400000
12734 5017 14934 1 149.00000 418.400000
12735 5018 13033 1 149.00000 418.400000
12735 5019 20178 1 149.00000 418.400000
12735 5020 21915 1 149.00000 418.400000
12736 5021 14987 1 149.00000 418.400000
12737 5022 15315 1 149.00000 418.400000
12737 5023 13801 1 149.00000 418.400000
12737 5024 16439 1 149.00000 418.400000
12737 5025 13185 1 149.00000 418.400000
12738 5026 14479 1 149.00000 418.400000
12738 5027 13176 1 149.00000 418.400000
13673 5028 14111 1 149.00000 418.400000
12739 5029 13673 1 149.00000 418.400000
19962 5030 20730 1 149.00000 418.400000
13616 5031 19962 1 149.00000 418.400000
12740 5032 14861 1 149.00000 418.400000
12740 5033 13598 1 149.00000 418.400000
12740 5034 13920 1 149.00000 418.400000
12740 5035 14383 1 149.00000 418.400000
12741 5036 15582 1 149.00000 418.400000
12741 5037 14302 1 149.00000 418.400000
15079 5038 19974 1 149.00000 418.400000
12742 5039 21378 1 149.00000 418.400000
12742 5040 14025 1 149.00000 418.400000
12742 5041 21564 1 149.00000 418.400000
12742 5042 14334 1 149.00000 418.400000
16152 5043 19986 1 149.00000 418.400000
14931 5044 19986 1 149.00000 418.400000
12743 5045 16213 1 149.00000 418.400000
12743 5046 13961 1 149.00000 418.400000
12743 5047 13668 1 149.00000 418.400000
12744 5048 15472 1 149.00000 418.400000
15785 5049 16474 1 149.00000 418.400000
12744 5050 16474 1 149.00000 418.400000
12744 5051 13312 1 149.00000 418.400000
12745 5052 13756 1 149.00000 418.400000
12745 5053 14219 1 149.00000 418.400000
17006 5054 19998 1 149.00000 418.400000
13580 5055 19998 1 149.00000 418.400000
12746 5056 13509 1 149.00000 418.400000
12746 5057 16260 1 149.00000 418.400000
12746 5058 15969 1 149.00000 418.400000
15288 5059 16261 1 149.00000 418.400000
12747 5060 15439 1 149.00000 418.400000
12747 5061 15288 1 149.00000 418.400000
12748 5062 12997 1 149.00000 418.400000
12748 5063 12919 1 149.00000 418.400000
12748 5064 16161 1 149.00000 418.400000
12749 5065 14607 1 149.00000 418.400000
12749 5066 14013 1 149.00000 418.400000
12749 5067 13182 1 149.00000 418.400000
12750 5068 14029 1 149.00000 418.400000
12750 5069 17160 1 149.00000 418.400000
12750 5070 14196 1 149.00000 418.400000
12751 5071 16526 1 149.00000 418.400000
12751 5072 15817 1 149.00000 418.400000
12751 5073 13440 1 149.00000 418.400000
12752 5074 13931 1 149.00000 418.400000
12752 5075 15466 1 149.00000 418.400000
12752 5076 14383 1 149.00000 418.400000
12752 5077 15459 1 149.00000 418.400000
12753 5078 14297 1 149.00000 418.400000
12753 5079 14541 1 149.00000 418.400000
12753 5080 15974 1 149.00000 418.400000
12754 5081 16510 1 149.00000 418.400000
12754 5082 15675 1 149.00000 418.400000
12755 5083 14213 1 149.00000 418.400000
12755 5084 14205 1 149.00000 418.400000
12756 5085 15440 1 149.00000 418.400000
12756 5086 13636 1 149.00000 418.400000
12756 5087 14943 1 149.00000 418.400000
12757 5088 13396 1 149.00000 418.400000
12757 5089 15873 1 149.00000 418.400000
12757 5090 15490 1 149.00000 418.400000
12757 5091 22414 1 149.00000 418.400000
12758 5092 22161 1 149.00000 418.400000
12758 5093 21330 1 149.00000 418.400000
12758 5094 13784 1 149.00000 418.400000
12758 5095 21528 1 149.00000 418.400000
12759 5096 15979 1 149.00000 418.400000
12759 5097 14343 1 149.00000 418.400000
12759 5098 14402 1 149.00000 418.400000
12759 5099 14677 1 149.00000 418.400000
12760 5100 15978 1 149.00000 418.400000
12760 5101 14058 1 149.00000 418.400000
12760 5102 14666 1 149.00000 418.400000
12760 5103 16311 1 149.00000 418.400000
13186 5104 20010 1 149.00000 418.400000
20010 5105 20490 1 149.00000 418.400000
12761 5106 16514 1 149.00000 418.400000
11867 5107 12761 1 149.00000 418.400000
12762 5108 15367 1 149.00000 418.400000
12762 5109 14984 1 149.00000 418.400000
12762 5110 14142 1 149.00000 418.400000
12762 5111 15474 1 149.00000 418.400000
12763 5112 13046 1 149.00000 418.400000
12763 5113 13155 1 149.00000 418.400000
12763 5114 13614 1 149.00000 418.400000
13155 5115 13668 1 149.00000 418.400000
12764 5116 16156 1 149.00000 418.400000
12764 5117 16503 1 149.00000 418.400000
12765 5118 15188 1 149.00000 418.400000
12765 5119 15096 1 149.00000 418.400000
12765 5120 13798 1 149.00000 418.400000
12765 5121 13728 1 149.00000 418.400000
12766 5122 14521 1 149.00000 418.400000
12766 5123 12767 1 149.00000 418.400000
12766 5124 12855 1 149.00000 418.400000
12767 5125 14396 1 149.00000 418.400000
12767 5126 16228 1 149.00000 418.400000
12768 5127 14503 1 149.00000 418.400000
12768 5128 15425 1 149.00000 418.400000
12768 5129 15962 1 149.00000 418.400000
20022 5130 21804 1 149.00000 418.400000
13996 5131 20022 1 149.00000 418.400000
13256 5132 20022 1 149.00000 418.400000
12769 5133 17062 1 149.00000 418.400000
12769 5134 20094 1 149.00000 418.400000
14627 5135 20034 1 149.00000 418.400000
13431 5136 20034 1 149.00000 418.400000
12770 5137 15137 1 149.00000 418.400000
11927 5138 12770 1 149.00000 418.400000
12770 5139 15498 1 149.00000 418.400000
12770 5140 13793 1 149.00000 418.400000
17202 5141 20046 1 149.00000 418.400000
16444 5142 20046 1 149.00000 418.400000
15236 5143 20046 1 149.00000 418.400000
12771 5144 13739 1 149.00000 418.400000
12771 5145 15586 1 149.00000 418.400000
12771 5146 13477 1 149.00000 418.400000
12771 5147 14985 1 149.00000 418.400000
12772 5148 15176 1 149.00000 418.400000
12772 5149 13846 1 149.00000 418.400000
12772 5150 14257 1 149.00000 418.400000
12773 5151 13906 1 149.00000 418.400000
12773 5152 14654 1 149.00000 418.400000
12773 5153 15653 1 149.00000 418.400000
12774 5154 14223 1 149.00000 418.400000
12774 5155 12837 1 149.00000 418.400000
12774 5156 12890 1 149.00000 418.400000
11364 5157 12775 1 149.00000 418.400000
12775 5158 12828 1 149.00000 418.400000
12775 5159 13102 1 149.00000 418.400000
12775 5160 14210 1 149.00000 418.400000
11664 5161 16335 1 149.00000 418.400000
12776 5162 16335 1 149.00000 418.400000
12777 5163 13382 1 149.00000 418.400000
12777 5164 14927 1 149.00000 418.400000
12778 5165 15494 1 149.00000 418.400000
12778 5166 13145 1 149.00000 418.400000
12779 5167 16207 1 149.00000 418.400000
12779 5168 16411 1 149.00000 418.400000
12780 5169 14535 1 149.00000 418.400000
12780 5170 15618 1 149.00000 418.400000
12781 5171 20142 1 149.00000 418.400000
20070 5172 20358 1 149.00000 418.400000
17412 5173 20082 1 149.00000 418.400000
15342 5174 20082 1 149.00000 418.400000
12782 5175 16558 1 149.00000 418.400000
12782 5176 15636 1 149.00000 418.400000
12782 5177 15878 1 149.00000 418.400000
11620 5178 12782 1 149.00000 418.400000
12783 5179 14915 1 149.00000 418.400000
12783 5180 15211 1 149.00000 418.400000
12783 5181 12848 1 149.00000 418.400000
12784 5182 16880 1 149.00000 418.400000
12784 5183 21630 1 149.00000 418.400000
12784 5184 15229 1 149.00000 418.400000
12785 5185 15426 1 149.00000 418.400000
12785 5186 16163 1 149.00000 418.400000
12785 5187 13525 1 149.00000 418.400000
12786 5188 22266 1 149.00000 418.400000
12786 5189 15207 1 149.00000 418.400000
12787 5190 15738 1 149.00000 418.400000
12788 5191 13933 1 149.00000 418.400000
12788 5192 14065 1 149.00000 418.400000
12788 5193 13713 1 149.00000 418.400000
12789 5194 14832 1 149.00000 418.400000
12789 5195 16112 1 149.00000 418.400000
12789 5196 13919 1 149.00000 418.400000
11709 5197 12790 1 149.00000 418.400000
12790 5198 16339 1 149.00000 418.400000
12790 5199 13684 1 149.00000 418.400000
12791 5200 16480 1 149.00000 418.400000
12791 5201 13374 1 149.00000 418.400000
12791 5202 13343 1 149.00000 418.400000
12792 5203 14113 1 149.00000 418.400000
11725 5204 12792 1 149.00000 418.400000
12792 5205 12943 1 149.00000 418.400000
12793 5206 14182 1 149.00000 418.400000
13487 5207 14182 1 149.00000 418.400000
12793 5208 14203 1 149.00000 418.400000
12793 5209 15683 1 149.00000 418.400000
12794 5210 13761 1 149.00000 418.400000
12794 5211 14728 1 149.00000 418.400000
12794 5212 14171 1 149.00000 418.400000
12794 5213 16167 1 149.00000 418.400000
12795 5214 12948 1 149.00000 418.400000
12795 5215 16357 1 149.00000 418.400000
12795 5216 21747 1 149.00000 418.400000
12796 5217 13006 1 149.00000 418.400000
12796 5218 13141 1 149.00000 418.400000
12796 5219 13171 1 149.00000 418.400000
12796 5220 15886 1 149.00000 418.400000
15764 5221 20094 1 149.00000 418.400000
12797 5222 16278 1 149.00000 418.400000
13993 5223 14800 1 149.00000 418.400000
12798 5224 13993 1 149.00000 418.400000
12798 5225 16105 1 149.00000 418.400000
12798 5226 16090 1 149.00000 418.400000
12799 5227 16096 1 149.00000 418.400000
12799 5228 14887 1 149.00000 418.400000
12799 5229 13325 1 149.00000 418.400000
12799 5230 14751 1 149.00000 418.400000
15397 5231 15493 1 149.00000 418.400000
12800 5232 13311 1 149.00000 418.400000
12800 5233 15397 1 149.00000 418.400000
20106 5234 20838 1 149.00000 418.400000
14520 5235 20106 1 149.00000 418.400000
12801 5236 13629 1 149.00000 418.400000
12801 5237 15797 1 149.00000 418.400000
12802 5238 15926 1 149.00000 418.400000
14726 5239 15926 1 149.00000 418.400000
12802 5240 14893 1 149.00000 418.400000
12802 5241 14487 1 149.00000 418.400000
12803 5242 13662 1 149.00000 418.400000
12803 5243 14963 1 149.00000 418.400000
12803 5244 15953 1 149.00000 418.400000
12803 5245 13280 1 149.00000 418.400000
12804 5246 13467 1 149.00000 418.400000
12804 5247 13669 1 149.00000 418.400000
12804 5248 13520 1 149.00000 418.400000
12805 5249 14085 1 149.00000 418.400000
12805 5250 14020 1 149.00000 418.400000
12805 5251 21042 1 149.00000 418.400000
15652 5252 15790 1 149.00000 418.400000
12806 5253 15790 1 149.00000 418.400000
12806 5254 15115 1 149.00000 418.400000
12806 5255 15833 1 149.00000 418.400000
20118 5256 21708 1 149.00000 418.400000
17272 5257 20118 1 149.00000 418.400000
12807 5258 16768 1 149.00000 418.400000
12807 5259 15076 1 149.00000 418.400000
15857 5260 20130 1 149.00000 418.400000
13667 5261 20130 1 149.00000 418.400000
12808 5262 16401 1 149.00000 418.400000
12808 5263 15951 1 149.00000 418.400000
12808 5264 15270 1 149.00000 418.400000
12809 5265 14451 1 149.00000 418.400000
12809 5266 16401 1 149.00000 418.400000
12810 5267 13842 1 149.00000 418.400000
12810 5268 20730 1 149.00000 418.400000
12810 5269 22302 1 149.00000 418.400000
12810 5270 22224 1 149.00000 418.400000
12811 5271 14378 1 149.00000 418.400000
12811 5272 15200 1 149.00000 418.400000
12811 5273 13542 1 149.00000 418.400000
12812 5274 14940 1 149.00000 418.400000
12812 5275 14187 1 149.00000 418.400000
12812 5276 12852 1 149.00000 418.400000
12813 5277 13584 1 149.00000 418.400000
12813 5278 16197 1 149.00000 418.400000
12813 5279 15513 1 149.00000 418.400000
12813 5280 14610 1 149.00000 418.400000
12814 5281 14132 1 149.00000 418.400000
12814 5282 16160 1 149.00000 418.400000
12814 5283 13000 1 149.00000 418.400000
12814 5284 14163 1 149.00000 418.400000
12815 5285 16490 1 149.00000 418.400000
12815 5286 15548 1 149.00000 418.400000
20142 5287 21966 1 149.00000 418.400000
20142 5288 21519 1 149.00000 418.400000
12816 5289 15949 1 149.00000 418.400000
12816 5290 13248 1 149.00000 418.400000
12816 5291 13643 1 149.00000 418.400000
12817 5292 13887 1 149.00000 418.400000
12817 5293 13133 1 149.00000 418.400000
12817 5294 14936 1 149.00000 418.400000
12818 5295 14585 1 149.00000 418.400000
12818 5296 13568 1 149.00000 418.400000
12818 5297 21960 1 149.00000 418.400000
13447 5298 20154 1 149.00000 418.400000
20154 5299 21639 1 149.00000 418.400000
11432 5300 12819 1 149.00000 418.400000
12819 5301 15271 1 149.00000 418.400000
12819 5302 14827 1 149.00000 418.400000
12820 5303 13678 1 149.00000 418.400000
12820 5304 14118 1 149.00000 418.400000
12821 5305 14169 1 149.00000 418.400000
12821 5306 15290 1 149.00000 418.400000
12821 5307 21702 1 149.00000 418.400000
12822 5308 12832 1 149.00000 418.400000
12822 5309 14001 1 149.00000 418.400000
12822 5310 13980 1 149.00000 418.400000
12822 5311 13792 1 149.00000 418.400000
12823 5312 13209 1 149.00000 418.400000
12824 5313 13823 1 149.00000 418.400000
12824 5314 14096 1 149.00000 418.400000
12824 5315 14189 1 149.00000 418.400000
12824 5316 16051 1 149.00000 418.400000
12825 5317 12947 1 149.00000 418.400000
12825 5318 12867 1 149.00000 418.400000
12825 5319 13278 1 149.00000 418.400000
12825 5320 15664 1 149.00000 418.400000
12826 5321 14773 1 149.00000 418.400000
12826 5322 21330 1 149.00000 418.400000
12826 5323 14196 1 149.00000 418.400000
16295 5324 20166 1 149.00000 418.400000
20166 5325 21849 1 149.00000 418.400000
12827 5326 14256 1 149.00000 418.400000
12827 5327 15222 1 149.00000 418.400000
12827 5328 13699 1 149.00000 418.400000
12828 5329 14318 1 149.00000 418.400000
12829 5330 13856 1 149.00000 418.400000
12829 5331 14564 1 149.00000 418.400000
12829 5332 16298 1 149.00000 418.400000
12830 5333 17776 1 149.00000 418.400000
12830 5334 15141 1 149.00000 418.400000
13764 5335 15454 1 149.00000 418.400000
12831 5336 14008 1 149.00000 418.400000
14008 5337 15454 1 149.00000 418.400000
14185 5338 15454 1 149.00000 418.400000
12832 5339 16021 1 149.00000 418.400000
12832 5340 13162 1 149.00000 418.400000
12832 5341 15467 1 149.00000 418.400000
12833 5342 15589 1 149.00000 418.400000
12833 5343 15613 1 149.00000 418.400000
20178 5344 21729 1 149.00000 418.400000
12834 5345 13563 1 149.00000 418.400000
12834 5346 12995 1 149.00000 418.400000
12834 5347 14897 1 149.00000 418.400000
12835 5348 21777 1 149.00000 418.400000
12835 5349 15759 1 149.00000 418.400000
12835 5350 13634 1 149.00000 418.400000
12836 5351 13316 1 149.00000 418.400000
20190 5352 21624 1 149.00000 418.400000
15880 5353 20202 1 149.00000 418.400000
12837 5354 15236 1 149.00000 418.400000
12837 5355 13472 1 149.00000 418.400000
20214 5356 22188 1 149.00000 418.400000
12838 5357 12886 1 149.00000 418.400000
12838 5358 16430 1 149.00000 418.400000
11856 5359 12838 1 149.00000 418.400000
12838 5360 13817 1 149.00000 418.400000
12839 5361 21006 1 149.00000 418.400000
12839 5362 15937 1 149.00000 418.400000
12839 5363 14256 1 149.00000 418.400000
12840 5364 15312 1 149.00000 418.400000
12840 5365 15654 1 149.00000 418.400000
12841 5366 15983 1 149.00000 418.400000
12841 5367 13647 1 149.00000 418.400000
12841 5368 15658 1 149.00000 418.400000
12842 5369 13797 1 149.00000 418.400000
12842 5370 12857 1 149.00000 418.400000
12842 5371 15499 1 149.00000 418.400000
12843 5372 14641 1 149.00000 418.400000
15866 5373 20226 1 149.00000 418.400000
20226 5374 21633 1 149.00000 418.400000
13446 5375 14376 1 149.00000 418.400000
13446 5376 16160 1 149.00000 418.400000
12844 5377 15499 1 149.00000 418.400000
12844 5378 15204 1 149.00000 418.400000
12845 5379 15625 1 149.00000 418.400000
12160 5380 12845 1 149.00000 418.400000
12846 5381 15815 1 149.00000 418.400000
12847 5382 14256 1 149.00000 418.400000
12847 5383 13742 1 149.00000 418.400000
12847 5384 12961 1 149.00000 418.400000
12848 5385 15893 1 149.00000 418.400000
12848 5386 13400 1 149.00000 418.400000
12848 5387 13767 1 149.00000 418.400000
12849 5388 13970 1 149.00000 418.400000
12849 5389 13516 1 149.00000 418.400000
12849 5390 13297 1 149.00000 418.400000
15253 5391 20238 1 149.00000 418.400000
20238 5392 21951 1 149.00000 418.400000
12308 5393 20250 1 149.00000 418.400000
15891 5394 20250 1 149.00000 418.400000
12850 5395 13021 1 149.00000 418.400000
12850 5396 12944 1 149.00000 418.400000
12850 5397 13265 1 149.00000 418.400000
12850 5398 14560 1 149.00000 418.400000
12851 5399 16397 1 149.00000 418.400000
12851 5400 16322 1 149.00000 418.400000
12851 5401 13251 1 149.00000 418.400000
12851 5402 13831 1 149.00000 418.400000
12852 5403 13585 1 149.00000 418.400000
12852 5404 12873 1 149.00000 418.400000
12852 5405 15128 1 149.00000 418.400000
12853 5406 13909 1 149.00000 418.400000
12853 5407 13333 1 149.00000 418.400000
12853 5408 13344 1 149.00000 418.400000
12854 5409 15721 1 149.00000 418.400000
11966 5410 12854 1 149.00000 418.400000
12855 5411 15742 1 149.00000 418.400000
12855 5412 15166 1 149.00000 418.400000
12856 5413 16076 1 149.00000 418.400000
12856 5414 21825 1 149.00000 418.400000
20262 5415 22341 1 149.00000 418.400000
13751 5416 20262 1 149.00000 418.400000
12857 5417 16205 1 149.00000 418.400000
12857 5418 16406 1 149.00000 418.400000
12844 5419 12857 1 149.00000 418.400000
12858 5420 15081 1 149.00000 418.400000
12858 5421 14104 1 149.00000 418.400000
12858 5422 13387 1 149.00000 418.400000
12858 5423 16290 1 149.00000 418.400000
12859 5424 21150 1 149.00000 418.400000
12859 5425 14896 1 149.00000 418.400000
12859 5426 15451 1 149.00000 418.400000
20286 5427 21828 1 149.00000 418.400000
20286 5428 22032 1 149.00000 418.400000
12860 5429 13676 1 149.00000 418.400000
12860 5430 14817 1 149.00000 418.400000
12861 5431 13358 1 149.00000 418.400000
12861 5432 14467 1 149.00000 418.400000
12861 5433 13373 1 149.00000 418.400000
12862 5434 14356 1 149.00000 418.400000
12862 5435 16369 1 149.00000 418.400000
12862 5436 16510 1 149.00000 418.400000
12863 5437 17510 1 149.00000 418.400000
12863 5438 14352 1 149.00000 418.400000
12863 5439 12892 1 149.00000 418.400000
18978 5440 21672 1 149.00000 418.400000
12864 5441 15254 1 149.00000 418.400000
12864 5442 22083 1 149.00000 418.400000
12864 5443 13421 1 149.00000 418.400000
12865 5444 14422 1 149.00000 418.400000
14070 5445 16324 1 149.00000 418.400000
12866 5446 14070 1 149.00000 418.400000
12866 5447 15698 1 149.00000 418.400000
12867 5448 17272 1 149.00000 418.400000
12867 5449 16070 1 149.00000 418.400000
11587 5450 12868 1 149.00000 418.400000
11810 5451 14868 1 149.00000 418.400000
11810 5452 14879 1 149.00000 418.400000
12869 5453 14834 1 149.00000 418.400000
12869 5454 15888 1 149.00000 418.400000
12869 5455 15566 1 149.00000 418.400000
12870 5456 16472 1 149.00000 418.400000
12870 5457 15569 1 149.00000 418.400000
12870 5458 15240 1 149.00000 418.400000
12870 5459 13928 1 149.00000 418.400000
12871 5460 21510 1 149.00000 418.400000
12871 5461 15372 1 149.00000 418.400000
12871 5462 17342 1 149.00000 418.400000
12871 5463 21642 1 149.00000 418.400000
13092 5464 13252 1 149.00000 418.400000
12873 5465 13558 1 149.00000 418.400000
12873 5466 13092 1 149.00000 418.400000
20298 5467 22023 1 149.00000 418.400000
20298 5468 22320 1 149.00000 418.400000
13019 5469 20298 1 149.00000 418.400000
12874 5470 14490 1 149.00000 418.400000
12874 5471 15573 1 149.00000 418.400000
20310 5472 20718 1 149.00000 418.400000
15766 5473 20310 1 149.00000 418.400000
12875 5474 15210 1 149.00000 418.400000
12875 5475 13503 1 149.00000 418.400000
11586 5476 15933 1 149.00000 418.400000
12877 5477 16189 1 149.00000 418.400000
12877 5478 14718 1 149.00000 418.400000
12878 5479 15839 1 149.00000 418.400000
12878 5480 15484 1 149.00000 418.400000
12878 5481 16284 1 149.00000 418.400000
12878 5482 14369 1 149.00000 418.400000
12879 5483 16087 1 149.00000 418.400000
12879 5484 13818 1 149.00000 418.400000
12879 5485 13390 1 149.00000 418.400000
12880 5486 13728 1 149.00000 418.400000
12880 5487 16505 1 149.00000 418.400000
12881 5488 14555 1 149.00000 418.400000
12881 5489 14934 1 149.00000 418.400000
12881 5490 13791 1 149.00000 418.400000
12882 5491 14211 1 149.00000 418.400000
12882 5492 14163 1 149.00000 418.400000
12882 5493 15440 1 149.00000 418.400000
12883 5494 14491 1 149.00000 418.400000
12883 5495 14153 1 149.00000 418.400000
16329 5496 20322 1 149.00000 418.400000
15427 5497 20322 1 149.00000 418.400000
20322 5498 20862 1 149.00000 418.400000
12884 5499 15056 1 149.00000 418.400000
12884 5500 16313 1 149.00000 418.400000
20334 5501 21528 1 149.00000 418.400000
14722 5502 20334 1 149.00000 418.400000
16112 5503 20334 1 149.00000 418.400000
12885 5504 17244 1 149.00000 418.400000
12885 5505 15832 1 149.00000 418.400000
12885 5506 20418 1 149.00000 418.400000
12886 5507 15861 1 149.00000 418.400000
12886 5508 15022 1 149.00000 418.400000
12886 5509 15565 1 149.00000 418.400000
12887 5510 13165 1 149.00000 418.400000
12887 5511 14441 1 149.00000 418.400000
12888 5512 16141 1 149.00000 418.400000
12888 5513 16503 1 149.00000 418.400000
12888 5514 14245 1 149.00000 418.400000
12888 5515 15331 1 149.00000 418.400000
15710 5516 20346 1 149.00000 418.400000
12889 5517 16472 1 149.00000 418.400000
12889 5518 13719 1 149.00000 418.400000
12889 5519 13193 1 149.00000 418.400000
12890 5520 15304 1 149.00000 418.400000
12890 5521 12943 1 149.00000 418.400000
12890 5522 15243 1 149.00000 418.400000
12891 5523 14447 1 149.00000 418.400000
12891 5524 14408 1 149.00000 418.400000
12892 5525 16237 1 149.00000 418.400000
14081 5526 20358 1 149.00000 418.400000
20358 5527 20658 1 149.00000 418.400000
12893 5528 13775 1 149.00000 418.400000
12893 5529 14947 1 149.00000 418.400000
12893 5530 13415 1 149.00000 418.400000
12893 5531 14374 1 149.00000 418.400000
12894 5532 13084 1 149.00000 418.400000
12894 5533 13149 1 149.00000 418.400000
12894 5534 13150 1 149.00000 418.400000
12895 5535 13726 1 149.00000 418.400000
12895 5536 16148 1 149.00000 418.400000
12896 5537 16389 1 149.00000 418.400000
12896 5538 13285 1 149.00000 418.400000
12896 5539 15421 1 149.00000 418.400000
12897 5540 22353 1 149.00000 418.400000
12897 5541 14060 1 149.00000 418.400000
12898 5542 18350 1 149.00000 418.400000
12898 5543 15256 1 149.00000 418.400000
12899 5544 16126 1 149.00000 418.400000
14117 5545 15859 1 149.00000 418.400000
12899 5546 14322 1 149.00000 418.400000
12899 5547 15859 1 149.00000 418.400000
12900 5548 15944 1 149.00000 418.400000
12900 5549 14007 1 149.00000 418.400000
12230 5550 15803 1 149.00000 418.400000
16235 5551 20370 1 149.00000 418.400000
13978 5552 20370 1 149.00000 418.400000
12901 5553 15933 1 149.00000 418.400000
12901 5554 15300 1 149.00000 418.400000
12901 5555 14279 1 149.00000 418.400000
12901 5556 13109 1 149.00000 418.400000
12902 5557 15285 1 149.00000 418.400000
12902 5558 14527 1 149.00000 418.400000
12902 5559 14288 1 149.00000 418.400000
12903 5560 16222 1 149.00000 418.400000
12903 5561 16614 1 149.00000 418.400000
12904 5562 14350 1 149.00000 418.400000
12904 5563 14742 1 149.00000 418.400000
12904 5564 14325 1 149.00000 418.400000
12905 5565 15614 1 149.00000 418.400000
12905 5566 18252 1 149.00000 418.400000
12905 5567 15844 1 149.00000 418.400000
12906 5568 14067 1 149.00000 418.400000
12906 5569 14493 1 149.00000 418.400000
12906 5570 12920 1 149.00000 418.400000
12907 5571 13591 1 149.00000 418.400000
14155 5572 20394 1 149.00000 418.400000
16040 5573 20394 1 149.00000 418.400000
12908 5574 15875 1 149.00000 418.400000
12908 5575 13686 1 149.00000 418.400000
12908 5576 16111 1 149.00000 418.400000
12073 5577 15509 1 149.00000 418.400000
15509 5578 20406 1 149.00000 418.400000
13505 5579 20418 1 149.00000 418.400000
16119 5580 17496 1 149.00000 418.400000
17496 5581 20418 1 149.00000 418.400000
12909 5582 21210 1 149.00000 418.400000
12909 5583 15519 1 149.00000 418.400000
12909 5584 14371 1 149.00000 418.400000
12910 5585 15827 1 149.00000 418.400000
12910 5586 13546 1 149.00000 418.400000
12911 5587 14075 1 149.00000 418.400000
12911 5588 15038 1 149.00000 418.400000
12911 5589 13427 1 149.00000 418.400000
12911 5590 16473 1 149.00000 418.400000
12912 5591 16519 1 149.00000 418.400000
12912 5592 22008 1 149.00000 418.400000
12912 5593 13791 1 149.00000 418.400000
12913 5594 14454 1 149.00000 418.400000
12913 5595 13065 1 149.00000 418.400000
12913 5596 15503 1 149.00000 418.400000
12913 5597 16020 1 149.00000 418.400000
12914 5598 15557 1 149.00000 418.400000
12914 5599 12986 1 149.00000 418.400000
12915 5600 15644 1 149.00000 418.400000
12915 5601 13664 1 149.00000 418.400000
12916 5602 14305 1 149.00000 418.400000
12916 5603 14447 1 149.00000 418.400000
12916 5604 13757 1 149.00000 418.400000
12917 5605 14348 1 149.00000 418.400000
12917 5606 14665 1 149.00000 418.400000
12917 5607 14168 1 149.00000 418.400000
12917 5608 13493 1 149.00000 418.400000
12918 5609 14218 1 149.00000 418.400000
12918 5610 15016 1 149.00000 418.400000
12918 5611 16481 1 149.00000 418.400000
12919 5612 15447 1 149.00000 418.400000
12919 5613 15303 1 149.00000 418.400000
12919 5614 16158 1 149.00000 418.400000
12920 5615 14180 1 149.00000 418.400000
12920 5616 15558 1 149.00000 418.400000
12920 5617 15015 1 149.00000 418.400000
12921 5618 15639 1 149.00000 418.400000
12921 5619 14336 1 149.00000 418.400000
12921 5620 14087 1 149.00000 418.400000
12921 5621 13640 1 149.00000 418.400000
12922 5622 15108 1 149.00000 418.400000
12922 5623 16390 1 149.00000 418.400000
12922 5624 14266 1 149.00000 418.400000
12922 5625 14336 1 149.00000 418.400000
12923 5626 16177 1 149.00000 418.400000
12924 5627 15914 1 149.00000 418.400000
12924 5628 14540 1 149.00000 418.400000
12925 5629 14207 1 149.00000 418.400000
13754 5630 20430 1 149.00000 418.400000
12926 5631 14174 1 149.00000 418.400000
15184 5632 15984 1 149.00000 418.400000
12926 5633 15984 1 149.00000 418.400000
12926 5634 13461 1 149.00000 418.400000
12927 5635 16047 1 149.00000 418.400000
12927 5636 15951 1 149.00000 418.400000
12927 5637 12993 1 149.00000 418.400000
12927 5638 13605 1 149.00000 418.400000
12928 5639 15237 1 149.00000 418.400000
12928 5640 13260 1 149.00000 418.400000
12928 5641 15453 1 149.00000 418.400000
12929 5642 14733 1 149.00000 418.400000
12929 5643 16240 1 149.00000 418.400000
12929 5644 13656 1 149.00000 418.400000
12929 5645 14607 1 149.00000 418.400000
12930 5646 13633 1 149.00000 418.400000
12930 5647 15358 1 149.00000 418.400000
12930 5648 14665 1 149.00000 418.400000
12931 5649 16419 1 149.00000 418.400000
12931 5650 14151 1 149.00000 418.400000
12931 5651 15121 1 149.00000 418.400000
12931 5652 16442 1 149.00000 418.400000
13957 5653 14842 1 149.00000 418.400000
12932 5654 13957 1 149.00000 418.400000
12932 5655 14347 1 149.00000 418.400000
12933 5656 13658 1 149.00000 418.400000
12933 5657 13866 1 149.00000 418.400000
12933 5658 15306 1 149.00000 418.400000
12933 5659 15834 1 149.00000 418.400000
12149 5660 15681 1 149.00000 418.400000
12934 5661 13168 1 149.00000 418.400000
12934 5662 15473 1 149.00000 418.400000
12934 5663 14022 1 149.00000 418.400000
12935 5664 13862 1 149.00000 418.400000
12935 5665 13088 1 149.00000 418.400000
12935 5666 13379 1 149.00000 418.400000
12936 5667 14853 1 149.00000 418.400000
12936 5668 16389 1 149.00000 418.400000
12936 5669 14398 1 149.00000 418.400000
12937 5670 14180 1 149.00000 418.400000
12937 5671 22227 1 149.00000 418.400000
12937 5672 13094 1 149.00000 418.400000
12937 5673 22143 1 149.00000 418.400000
12938 5674 14174 1 149.00000 418.400000
12938 5675 13145 1 149.00000 418.400000
12938 5676 13473 1 149.00000 418.400000
12938 5677 12972 1 149.00000 418.400000
12939 5678 15281 1 149.00000 418.400000
12939 5679 13658 1 149.00000 418.400000
12939 5680 16114 1 149.00000 418.400000
12940 5681 16341 1 149.00000 418.400000
12940 5682 14509 1 149.00000 418.400000
12941 5683 14744 1 149.00000 418.400000
12941 5684 14382 1 149.00000 418.400000
12941 5685 15469 1 149.00000 418.400000
12942 5686 15716 1 149.00000 418.400000
12942 5687 14400 1 149.00000 418.400000
12942 5688 13976 1 149.00000 418.400000
12943 5689 14465 1 149.00000 418.400000
12943 5690 14779 1 149.00000 418.400000
12944 5691 16159 1 149.00000 418.400000
12944 5692 13828 1 149.00000 418.400000
12944 5693 14834 1 149.00000 418.400000
11863 5694 13290 1 149.00000 418.400000
13290 5695 15996 1 149.00000 418.400000
12946 5696 15205 1 149.00000 418.400000
12946 5697 15201 1 149.00000 418.400000
12946 5698 15751 1 149.00000 418.400000
12946 5699 15993 1 149.00000 418.400000
12947 5700 13163 1 149.00000 418.400000
12947 5701 16153 1 149.00000 418.400000
12947 5702 16028 1 149.00000 418.400000
12948 5703 15158 1 149.00000 418.400000
12948 5704 13206 1 149.00000 418.400000
12948 5705 15807 1 149.00000 418.400000
12991 5706 13905 1 149.00000 418.400000
12949 5707 14704 1 149.00000 418.400000
12949 5708 12991 1 149.00000 418.400000
12950 5709 17664 1 149.00000 418.400000
12950 5710 13401 1 149.00000 418.400000
12951 5711 13672 1 149.00000 418.400000
12951 5712 13690 1 149.00000 418.400000
14370 5713 20442 1 149.00000 418.400000
20442 5714 21222 1 149.00000 418.400000
14484 5715 20454 1 149.00000 418.400000
13370 5716 20454 1 149.00000 418.400000
13911 5717 20454 1 149.00000 418.400000
12952 5718 14873 1 149.00000 418.400000
12952 5719 13898 1 149.00000 418.400000
12952 5720 16201 1 149.00000 418.400000
12952 5721 16221 1 149.00000 418.400000
12953 5722 14761 1 149.00000 418.400000
12953 5723 14593 1 149.00000 418.400000
12953 5724 15421 1 149.00000 418.400000
15983 5725 20466 1 149.00000 418.400000
13933 5726 20466 1 149.00000 418.400000
20466 5727 21609 1 149.00000 418.400000
12954 5728 14676 1 149.00000 418.400000
12954 5729 14019 1 149.00000 418.400000
12954 5730 15028 1 149.00000 418.400000
12955 5731 15056 1 149.00000 418.400000
12955 5732 14227 1 149.00000 418.400000
12956 5733 13242 1 149.00000 418.400000
12956 5734 13292 1 149.00000 418.400000
12957 5735 22137 1 149.00000 418.400000
12957 5736 13511 1 149.00000 418.400000
16142 5737 20478 1 149.00000 418.400000
12958 5738 15744 1 149.00000 418.400000
12958 5739 13360 1 149.00000 418.400000
12958 5740 15535 1 149.00000 418.400000
12958 5741 14882 1 149.00000 418.400000
12959 5742 16057 1 149.00000 418.400000
12959 5743 13025 1 149.00000 418.400000
14959 5744 16057 1 149.00000 418.400000
12785 5745 12960 1 149.00000 418.400000
12960 5746 14232 1 149.00000 418.400000
12961 5747 15219 1 149.00000 418.400000
12961 5748 14394 1 149.00000 418.400000
12962 5749 14568 1 149.00000 418.400000
12962 5750 13972 1 149.00000 418.400000
13984 5751 20490 1 149.00000 418.400000
14059 5752 20490 1 149.00000 418.400000
12963 5753 13588 1 149.00000 418.400000
12963 5754 13223 1 149.00000 418.400000
12963 5755 16004 1 149.00000 418.400000
12964 5756 14517 1 149.00000 418.400000
12964 5757 14409 1 149.00000 418.400000
12964 5758 14054 1 149.00000 418.400000
12965 5759 14693 1 149.00000 418.400000
14693 5760 16362 1 149.00000 418.400000
12966 5761 14926 1 149.00000 418.400000
12966 5762 20958 1 149.00000 418.400000
12966 5763 22071 1 149.00000 418.400000
14621 5764 14926 1 149.00000 418.400000
12967 5765 13297 1 149.00000 418.400000
12967 5766 15942 1 149.00000 418.400000
12968 5767 15659 1 149.00000 418.400000
12968 5768 14433 1 149.00000 418.400000
12968 5769 15420 1 149.00000 418.400000
12968 5770 13972 1 149.00000 418.400000
12969 5771 14807 1 149.00000 418.400000
12970 5772 15866 1 149.00000 418.400000
12970 5773 15130 1 149.00000 418.400000
13728 5774 20502 1 149.00000 418.400000
13619 5775 20502 1 149.00000 418.400000
16334 5776 20502 1 149.00000 418.400000
12971 5777 12989 1 149.00000 418.400000
12971 5778 13498 1 149.00000 418.400000
12971 5779 14867 1 149.00000 418.400000
12972 5780 13736 1 149.00000 418.400000
12972 5781 14111 1 149.00000 418.400000
12972 5782 13609 1 149.00000 418.400000
12973 5783 14952 1 149.00000 418.400000
12973 5784 13211 1 149.00000 418.400000
12973 5785 15085 1 149.00000 418.400000
12974 5786 15791 1 149.00000 418.400000
12975 5787 13632 1 149.00000 418.400000
12975 5788 15515 1 149.00000 418.400000
12975 5789 13989 1 149.00000 418.400000
12975 5790 16079 1 149.00000 418.400000
15259 5791 15506 1 149.00000 418.400000
12976 5792 15259 1 149.00000 418.400000
12976 5793 15023 1 149.00000 418.400000
13293 5794 13947 1 149.00000 418.400000
12977 5795 14317 1 149.00000 418.400000
12977 5796 14093 1 149.00000 418.400000
12977 5797 13947 1 149.00000 418.400000
12978 5798 13678 1 149.00000 418.400000
11432 5799 12978 1 149.00000 418.400000
12978 5800 14267 1 149.00000 418.400000
12978 5801 13888 1 149.00000 418.400000
12979 5802 13386 1 149.00000 418.400000
12980 5803 15364 1 149.00000 418.400000
12980 5804 15270 1 149.00000 418.400000
12980 5805 16047 1 149.00000 418.400000
12981 5806 15515 1 149.00000 418.400000
12981 5807 15248 1 149.00000 418.400000
12981 5808 14886 1 149.00000 418.400000
12981 5809 15453 1 149.00000 418.400000
12982 5810 15627 1 149.00000 418.400000
12982 5811 14916 1 149.00000 418.400000
12983 5812 13131 1 149.00000 418.400000
12983 5813 14189 1 149.00000 418.400000
12983 5814 13036 1 149.00000 418.400000
12984 5815 16362 1 149.00000 418.400000
12984 5816 15909 1 149.00000 418.400000
12984 5817 13560 1 149.00000 418.400000
12985 5818 16050 1 149.00000 418.400000
12985 5819 16296 1 149.00000 418.400000
12914 5820 13789 1 149.00000 418.400000
12986 5821 14180 1 149.00000 418.400000
12987 5822 14532 1 149.00000 418.400000
12987 5823 16220 1 149.00000 418.400000
13328 5824 15301 1 149.00000 418.400000
12988 5825 15301 1 149.00000 418.400000
12988 5826 15270 1 149.00000 418.400000
12988 5827 13962 1 149.00000 418.400000
14246 5828 14293 1 149.00000 418.400000
14293 5829 20514 1 149.00000 418.400000
13222 5830 20526 1 149.00000 418.400000
12989 5831 15133 1 149.00000 418.400000
15257 5832 20538 1 149.00000 418.400000
14280 5833 20538 1 149.00000 418.400000
20538 5834 21531 1 149.00000 418.400000
12990 5835 14089 1 149.00000 418.400000
12990 5836 14662 1 149.00000 418.400000
14416 5837 14662 1 149.00000 418.400000
14300 5838 14662 1 149.00000 418.400000
16316 5839 20550 1 149.00000 418.400000
14737 5840 16316 1 149.00000 418.400000
16316 5841 22311 1 149.00000 418.400000
16183 5842 16316 1 149.00000 418.400000
12991 5843 15012 1 149.00000 418.400000
12949 5844 16351 1 149.00000 418.400000
12992 5845 21537 1 149.00000 418.400000
12992 5846 21030 1 149.00000 418.400000
12993 5847 13858 1 149.00000 418.400000
12993 5848 16782 1 149.00000 418.400000
12993 5849 14908 1 149.00000 418.400000
12994 5850 15930 1 149.00000 418.400000
12994 5851 14258 1 149.00000 418.400000
12994 5852 14929 1 149.00000 418.400000
12995 5853 16122 1 149.00000 418.400000
12996 5854 13921 1 149.00000 418.400000
12996 5855 13924 1 149.00000 418.400000
12996 5856 22041 1 149.00000 418.400000
12996 5857 15695 1 149.00000 418.400000
12733 5858 12997 1 149.00000 418.400000
12997 5859 13439 1 149.00000 418.400000
15545 5860 20562 1 149.00000 418.400000
15142 5861 15545 1 149.00000 418.400000
12998 5862 15846 1 149.00000 418.400000
14271 5863 15083 1 149.00000 418.400000
12998 5864 15083 1 149.00000 418.400000
12999 5865 15347 1 149.00000 418.400000
12999 5866 21354 1 149.00000 418.400000
12999 5867 16016 1 149.00000 418.400000
13000 5868 14519 1 149.00000 418.400000
13000 5869 16290 1 149.00000 418.400000
13001 5870 15197 1 149.00000 418.400000
13001 5871 13754 1 149.00000 418.400000
13001 5872 15706 1 149.00000 418.400000
13002 5873 13135 1 149.00000 418.400000
13002 5874 15171 1 149.00000 418.400000
13002 5875 13606 1 149.00000 418.400000
13003 5876 13437 1 149.00000 418.400000
13003 5877 13876 1 149.00000 418.400000
13003 5878 13373 1 149.00000 418.400000
11606 5879 13003 1 149.00000 418.400000
13004 5880 13839 1 149.00000 418.400000
13004 5881 13724 1 149.00000 418.400000
13004 5882 13810 1 149.00000 418.400000
13004 5883 15468 1 149.00000 418.400000
13005 5884 14977 1 149.00000 418.400000
13005 5885 13470 1 149.00000 418.400000
13005 5886 15928 1 149.00000 418.400000
13006 5887 16523 1 149.00000 418.400000
13006 5888 15419 1 149.00000 418.400000
13007 5889 13475 1 149.00000 418.400000
13007 5890 14236 1 149.00000 418.400000
13007 5891 15063 1 149.00000 418.400000
13440 5892 20574 1 149.00000 418.400000
12450 5893 20574 1 149.00000 418.400000
14904 5894 20574 1 149.00000 418.400000
13008 5895 14507 1 149.00000 418.400000
13008 5896 15564 1 149.00000 418.400000
13008 5897 14650 1 149.00000 418.400000
13009 5898 16061 1 149.00000 418.400000
13009 5899 15571 1 149.00000 418.400000
13009 5900 14875 1 149.00000 418.400000
13010 5901 14314 1 149.00000 418.400000
13010 5902 13228 1 149.00000 418.400000
13010 5903 13760 1 149.00000 418.400000
13011 5904 13494 1 149.00000 418.400000
13011 5905 14688 1 149.00000 418.400000
13011 5906 16135 1 149.00000 418.400000
13011 5907 13617 1 149.00000 418.400000
13012 5908 15574 1 149.00000 418.400000
12173 5909 13012 1 149.00000 418.400000
13012 5910 13271 1 149.00000 418.400000
13013 5911 14382 1 149.00000 418.400000
13013 5912 13546 1 149.00000 418.400000
13013 5913 15100 1 149.00000 418.400000
13014 5914 15092 1 149.00000 418.400000
13014 5915 15195 1 149.00000 418.400000
13014 5916 13300 1 149.00000 418.400000
13015 5917 13314 1 149.00000 418.400000
13015 5918 13701 1 149.00000 418.400000
16274 5919 20586 1 149.00000 418.400000
11561 5920 13016 1 149.00000 418.400000
13016 5921 15301 1 149.00000 418.400000
13016 5922 13357 1 149.00000 418.400000
13017 5923 15918 1 149.00000 418.400000
13017 5924 15687 1 149.00000 418.400000
13017 5925 13228 1 149.00000 418.400000
13018 5926 14278 1 149.00000 418.400000
12261 5927 13517 1 149.00000 418.400000
13019 5928 16066 1 149.00000 418.400000
13019 5929 15018 1 149.00000 418.400000
13020 5930 13830 1 149.00000 418.400000
13020 5931 16324 1 149.00000 418.400000
13020 5932 14111 1 149.00000 418.400000
13020 5933 14204 1 149.00000 418.400000
13021 5934 13722 1 149.00000 418.400000
13022 5935 14685 1 149.00000 418.400000
13022 5936 14266 1 149.00000 418.400000
13023 5937 14012 1 149.00000 418.400000
13023 5938 13494 1 149.00000 418.400000
13024 5939 14488 1 149.00000 418.400000
13024 5940 13536 1 149.00000 418.400000
13024 5941 14794 1 149.00000 418.400000
13024 5942 14330 1 149.00000 418.400000
15793 5943 16181 1 149.00000 418.400000
14016 5944 15793 1 149.00000 418.400000
13025 5945 15793 1 149.00000 418.400000
13026 5946 15127 1 149.00000 418.400000
13026 5947 15126 1 149.00000 418.400000
13026 5948 13229 1 149.00000 418.400000
13027 5949 16356 1 149.00000 418.400000
13027 5950 13872 1 149.00000 418.400000
13027 5951 13157 1 149.00000 418.400000
13027 5952 13517 1 149.00000 418.400000
13028 5953 13951 1 149.00000 418.400000
13028 5954 15464 1 149.00000 418.400000
12793 5955 13028 1 149.00000 418.400000
13028 5956 16090 1 149.00000 418.400000
13029 5957 14198 1 149.00000 418.400000
13029 5958 13737 1 149.00000 418.400000
13029 5959 13498 1 149.00000 418.400000
13029 5960 15303 1 149.00000 418.400000
13030 5961 13465 1 149.00000 418.400000
13030 5962 13671 1 149.00000 418.400000
15077 5963 21759 1 149.00000 418.400000
13353 5964 20598 1 149.00000 418.400000
20598 5965 21759 1 149.00000 418.400000
13031 5966 15443 1 149.00000 418.400000
13031 5967 15238 1 149.00000 418.400000
13032 5968 13967 1 149.00000 418.400000
13032 5969 19938 1 149.00000 418.400000
13033 5970 14249 1 149.00000 418.400000
13033 5971 14235 1 149.00000 418.400000
13033 5972 13542 1 149.00000 418.400000
13411 5973 14249 1 149.00000 418.400000
16479 5974 20610 1 149.00000 418.400000
20610 5975 21306 1 149.00000 418.400000
13034 5976 13671 1 149.00000 418.400000
13034 5977 15259 1 149.00000 418.400000
13509 5978 14225 1 149.00000 418.400000
20622 5979 21882 1 149.00000 418.400000
13509 5980 20622 1 149.00000 418.400000
13509 5981 21873 1 149.00000 418.400000
13035 5982 14003 1 149.00000 418.400000
13035 5983 13212 1 149.00000 418.400000
13036 5984 15516 1 149.00000 418.400000
13036 5985 14131 1 149.00000 418.400000
13036 5986 13301 1 149.00000 418.400000
13037 5987 16342 1 149.00000 418.400000
13037 5988 15511 1 149.00000 418.400000
13038 5989 15942 1 149.00000 418.400000
13038 5990 14638 1 149.00000 418.400000
15362 5991 20634 1 149.00000 418.400000
13189 5992 20634 1 149.00000 418.400000
13039 5993 15214 1 149.00000 418.400000
13039 5994 13552 1 149.00000 418.400000
13039 5995 16276 1 149.00000 418.400000
13039 5996 14887 1 149.00000 418.400000
20646 5997 22464 1 149.00000 418.400000
20646 5998 21645 1 149.00000 418.400000
13040 5999 15773 1 149.00000 418.400000
20658 6000 21957 1 149.00000 418.400000
16428 6001 20658 1 149.00000 418.400000
13041 6002 15321 1 149.00000 418.400000
13041 6003 13763 1 149.00000 418.400000
13041 6004 13070 1 149.00000 418.400000
16337 6005 20670 1 149.00000 418.400000
15340 6006 20670 1 149.00000 418.400000
13042 6007 15470 1 149.00000 418.400000
13042 6008 13136 1 149.00000 418.400000
13042 6009 15453 1 149.00000 418.400000
13042 6010 13732 1 149.00000 418.400000
13043 6011 15492 1 149.00000 418.400000
13043 6012 15908 1 149.00000 418.400000
13044 6013 13113 1 149.00000 418.400000
13044 6014 21843 1 149.00000 418.400000
13044 6015 15098 1 149.00000 418.400000
13045 6016 16429 1 149.00000 418.400000
13045 6017 14642 1 149.00000 418.400000
13045 6018 14947 1 149.00000 418.400000
13045 6019 16260 1 149.00000 418.400000
11656 6020 13347 1 149.00000 418.400000
11656 6021 16213 1 149.00000 418.400000
13047 6022 15386 1 149.00000 418.400000
13047 6023 13702 1 149.00000 418.400000
13047 6024 13719 1 149.00000 418.400000
13047 6025 14798 1 149.00000 418.400000
20682 6026 21006 1 149.00000 418.400000
15219 6027 20682 1 149.00000 418.400000
13048 6028 13694 1 149.00000 418.400000
13048 6029 15190 1 149.00000 418.400000
13048 6030 16062 1 149.00000 418.400000
16041 6031 21462 1 149.00000 418.400000
16041 6032 20694 1 149.00000 418.400000
13049 6033 13642 1 149.00000 418.400000
13049 6034 14452 1 149.00000 418.400000
13050 6035 13564 1 149.00000 418.400000
13050 6036 16492 1 149.00000 418.400000
13050 6037 13831 1 149.00000 418.400000
20706 6038 20826 1 149.00000 418.400000
13051 6039 13969 1 149.00000 418.400000
13051 6040 16129 1 149.00000 418.400000
13051 6041 13614 1 149.00000 418.400000
13051 6042 15624 1 149.00000 418.400000
13052 6043 16230 1 149.00000 418.400000
13052 6044 14407 1 149.00000 418.400000
13052 6045 15711 1 149.00000 418.400000
13052 6046 16169 1 149.00000 418.400000
13053 6047 15812 1 149.00000 418.400000
13053 6048 14161 1 149.00000 418.400000
13053 6049 15439 1 149.00000 418.400000
13054 6050 16436 1 149.00000 418.400000
13694 6051 20718 1 149.00000 418.400000
13055 6052 14875 1 149.00000 418.400000
13055 6053 15544 1 149.00000 418.400000
13055 6054 14736 1 149.00000 418.400000
13056 6055 14910 1 149.00000 418.400000
13056 6056 13874 1 149.00000 418.400000
13056 6057 21549 1 149.00000 418.400000
13057 6058 14772 1 149.00000 418.400000
13057 6059 16116 1 149.00000 418.400000
13057 6060 15947 1 149.00000 418.400000
13058 6061 16376 1 149.00000 418.400000
13059 6062 13211 1 149.00000 418.400000
13059 6063 14764 1 149.00000 418.400000
13059 6064 15839 1 149.00000 418.400000
13060 6065 13423 1 149.00000 418.400000
13060 6066 16431 1 149.00000 418.400000
13060 6067 15475 1 149.00000 418.400000
13061 6068 15830 1 149.00000 418.400000
13061 6069 13563 1 149.00000 418.400000
13062 6070 15614 1 149.00000 418.400000
13062 6071 15062 1 149.00000 418.400000
13062 6072 16308 1 149.00000 418.400000
13062 6073 21750 1 149.00000 418.400000
13063 6074 14277 1 149.00000 418.400000
13063 6075 14271 1 149.00000 418.400000
13064 6076 16499 1 149.00000 418.400000
13064 6077 14801 1 149.00000 418.400000
13064 6078 15971 1 149.00000 418.400000
13965 6079 20742 1 149.00000 418.400000
15402 6080 20742 1 149.00000 418.400000
13065 6081 14746 1 149.00000 418.400000
13065 6082 15165 1 149.00000 418.400000
13065 6083 14438 1 149.00000 418.400000
13066 6084 13736 1 149.00000 418.400000
13066 6085 14445 1 149.00000 418.400000
13066 6086 13461 1 149.00000 418.400000
13066 6087 14770 1 149.00000 418.400000
16494 6088 20754 1 149.00000 418.400000
20754 6089 22020 1 149.00000 418.400000
13067 6090 15293 1 149.00000 418.400000
13067 6091 15970 1 149.00000 418.400000
13067 6092 14174 1 149.00000 418.400000
13067 6093 13912 1 149.00000 418.400000
13068 6094 15094 1 149.00000 418.400000
13068 6095 16202 1 149.00000 418.400000
13068 6096 13385 1 149.00000 418.400000
13069 6097 13429 1 149.00000 418.400000
13069 6098 13489 1 149.00000 418.400000
14436 6099 20778 1 149.00000 418.400000
20778 6100 22287 1 149.00000 418.400000
14085 6101 20778 1 149.00000 418.400000
13070 6102 14862 1 149.00000 418.400000
13070 6103 16434 1 149.00000 418.400000
13071 6104 15918 1 149.00000 418.400000
13071 6105 13546 1 149.00000 418.400000
13071 6106 14283 1 149.00000 418.400000
13071 6107 14591 1 149.00000 418.400000
15819 6108 20790 1 149.00000 418.400000
15798 6109 20790 1 149.00000 418.400000
15280 6110 20790 1 149.00000 418.400000
13072 6111 14494 1 149.00000 418.400000
14907 6112 15180 1 149.00000 418.400000
13072 6113 14907 1 149.00000 418.400000
15910 6114 15963 1 149.00000 418.400000
13073 6115 15529 1 149.00000 418.400000
12667 6116 13074 1 149.00000 418.400000
13074 6117 16193 1 149.00000 418.400000
13075 6118 16025 1 149.00000 418.400000
13076 6119 15736 1 149.00000 418.400000
13076 6120 13106 1 149.00000 418.400000
13076 6121 13759 1 149.00000 418.400000
13077 6122 15797 1 149.00000 418.400000
13077 6123 13804 1 149.00000 418.400000
13078 6124 14564 1 149.00000 418.400000
13078 6125 15824 1 149.00000 418.400000
13078 6126 17370 1 149.00000 418.400000
13078 6127 13254 1 149.00000 418.400000
13079 6128 13473 1 149.00000 418.400000
12132 6129 13080 1 149.00000 418.400000
13080 6130 17762 1 149.00000 418.400000
13080 6131 14200 1 149.00000 418.400000
13081 6132 13082 1 149.00000 418.400000
13081 6133 13269 1 149.00000 418.400000
13081 6134 15380 1 149.00000 418.400000
13503 6135 15300 1 149.00000 418.400000
13082 6136 13109 1 149.00000 418.400000
13083 6137 14838 1 149.00000 418.400000
13083 6138 13572 1 149.00000 418.400000
13083 6139 13840 1 149.00000 418.400000
13083 6140 15917 1 149.00000 418.400000
13084 6141 13232 1 149.00000 418.400000
13084 6142 15838 1 149.00000 418.400000
13084 6143 14122 1 149.00000 418.400000
13085 6144 22233 1 149.00000 418.400000
14050 6145 14596 1 149.00000 418.400000
13086 6146 14050 1 149.00000 418.400000
14050 6147 15675 1 149.00000 418.400000
20802 6148 21486 1 149.00000 418.400000
20802 6149 22053 1 149.00000 418.400000
13087 6150 22278 1 149.00000 418.400000
13087 6151 22356 1 149.00000 418.400000
13087 6152 22080 1 149.00000 418.400000
13087 6153 15408 1 149.00000 418.400000
13088 6154 14086 1 149.00000 418.400000
13089 6155 14079 1 149.00000 418.400000
13089 6156 14238 1 149.00000 418.400000
13089 6157 13918 1 149.00000 418.400000
13090 6158 15765 1 149.00000 418.400000
13090 6159 13892 1 149.00000 418.400000
13091 6160 14274 1 149.00000 418.400000
12672 6161 13577 1 149.00000 418.400000
13577 6162 15643 1 149.00000 418.400000
13529 6163 20814 1 149.00000 418.400000
13644 6164 20814 1 149.00000 418.400000
13092 6165 14319 1 149.00000 418.400000
13092 6166 13863 1 149.00000 418.400000
14203 6167 16255 1 149.00000 418.400000
13093 6168 15788 1 149.00000 418.400000
13093 6169 15412 1 149.00000 418.400000
13093 6170 14203 1 149.00000 418.400000
13094 6171 15343 1 149.00000 418.400000
13094 6172 21831 1 149.00000 418.400000
20826 6173 21750 1 149.00000 418.400000
14329 6174 20826 1 149.00000 418.400000
15817 6175 16526 1 149.00000 418.400000
13095 6176 13524 1 149.00000 418.400000
13095 6177 16180 1 149.00000 418.400000
11854 6178 16526 1 149.00000 418.400000
13096 6179 14869 1 149.00000 418.400000
13096 6180 13125 1 149.00000 418.400000
13097 6181 15610 1 149.00000 418.400000
13097 6182 16217 1 149.00000 418.400000
13097 6183 14124 1 149.00000 418.400000
13097 6184 14286 1 149.00000 418.400000
13098 6185 14384 1 149.00000 418.400000
13098 6186 16558 1 149.00000 418.400000
13098 6187 18224 1 149.00000 418.400000
13099 6188 13340 1 149.00000 418.400000
13099 6189 16260 1 149.00000 418.400000
13099 6190 14225 1 149.00000 418.400000
13099 6191 13591 1 149.00000 418.400000
14411 6192 20838 1 149.00000 418.400000
13100 6193 14462 1 149.00000 418.400000
13100 6194 13659 1 149.00000 418.400000
13100 6195 14816 1 149.00000 418.400000
13100 6196 14178 1 149.00000 418.400000
15819 6197 20850 1 149.00000 418.400000
15017 6198 20850 1 149.00000 418.400000
14366 6199 16768 1 149.00000 418.400000
13101 6200 15787 1 149.00000 418.400000
13101 6201 14556 1 149.00000 418.400000
13101 6202 13365 1 149.00000 418.400000
13102 6203 13499 1 149.00000 418.400000
13102 6204 13449 1 149.00000 418.400000
13103 6205 14240 1 149.00000 418.400000
13103 6206 16004 1 149.00000 418.400000
13103 6207 14808 1 149.00000 418.400000
13104 6208 14387 1 149.00000 418.400000
13104 6209 14379 1 149.00000 418.400000
13105 6210 14846 1 149.00000 418.400000
13105 6211 15874 1 149.00000 418.400000
13105 6212 14468 1 149.00000 418.400000
13105 6213 16246 1 149.00000 418.400000
13106 6214 13329 1 149.00000 418.400000
13107 6215 13680 1 149.00000 418.400000
13107 6216 13278 1 149.00000 418.400000
13107 6217 13950 1 149.00000 418.400000
13108 6218 15092 1 149.00000 418.400000
13108 6219 17734 1 149.00000 418.400000
13109 6220 15574 1 149.00000 418.400000
13110 6221 16405 1 149.00000 418.400000
12806 6222 13110 1 149.00000 418.400000
13111 6223 15637 1 149.00000 418.400000
13111 6224 14097 1 149.00000 418.400000
13111 6225 22194 1 149.00000 418.400000
13112 6226 14679 1 149.00000 418.400000
13112 6227 16058 1 149.00000 418.400000
13112 6228 14080 1 149.00000 418.400000
15275 6229 20862 1 149.00000 418.400000
16487 6230 20874 1 149.00000 418.400000
14065 6231 20874 1 149.00000 418.400000
20874 6232 21780 1 149.00000 418.400000
19122 6233 20886 1 149.00000 418.400000
12495 6234 13979 1 149.00000 418.400000
13113 6235 17860 1 149.00000 418.400000
13114 6236 14292 1 149.00000 418.400000
13114 6237 13512 1 149.00000 418.400000
13114 6238 21939 1 149.00000 418.400000
13115 6239 15909 1 149.00000 418.400000
13115 6240 13908 1 149.00000 418.400000
13115 6241 16380 1 149.00000 418.400000
13115 6242 16437 1 149.00000 418.400000
13116 6243 13813 1 149.00000 418.400000
13116 6244 15146 1 149.00000 418.400000
13117 6245 16182 1 149.00000 418.400000
13118 6246 15064 1 149.00000 418.400000
13118 6247 15823 1 149.00000 418.400000
13119 6248 15610 1 149.00000 418.400000
13119 6249 14444 1 149.00000 418.400000
13119 6250 13250 1 149.00000 418.400000
13120 6251 18406 1 149.00000 418.400000
13121 6252 15917 1 149.00000 418.400000
13121 6253 14361 1 149.00000 418.400000
13121 6254 14218 1 149.00000 418.400000
13122 6255 14386 1 149.00000 418.400000
14275 6256 14944 1 149.00000 418.400000
13122 6257 13398 1 149.00000 418.400000
13122 6258 14275 1 149.00000 418.400000
13123 6259 14194 1 149.00000 418.400000
13123 6260 16233 1 149.00000 418.400000
13123 6261 15654 1 149.00000 418.400000
20898 6262 22311 1 149.00000 418.400000
20898 6263 22017 1 149.00000 418.400000
14152 6264 20898 1 149.00000 418.400000
13124 6265 13462 1 149.00000 418.400000
11441 6266 15721 1 149.00000 418.400000
20910 6267 22044 1 149.00000 418.400000
13126 6268 16326 1 149.00000 418.400000
13126 6269 15584 1 149.00000 418.400000
13126 6270 14698 1 149.00000 418.400000
13126 6271 15953 1 149.00000 418.400000
13127 6272 15646 1 149.00000 418.400000
13127 6273 15471 1 149.00000 418.400000
13127 6274 14621 1 149.00000 418.400000
13964 6275 14621 1 149.00000 418.400000
13128 6276 13834 1 149.00000 418.400000
13128 6277 13757 1 149.00000 418.400000
13129 6278 16373 1 149.00000 418.400000
13129 6279 14884 1 149.00000 418.400000
13129 6280 16167 1 149.00000 418.400000
13129 6281 15054 1 149.00000 418.400000
13130 6282 16433 1 149.00000 418.400000
12301 6283 13131 1 149.00000 418.400000
13131 6284 16051 1 149.00000 418.400000
13131 6285 15071 1 149.00000 418.400000
13132 6286 15734 1 149.00000 418.400000
13132 6287 15912 1 149.00000 418.400000
13133 6288 16315 1 149.00000 418.400000
13133 6289 16026 1 149.00000 418.400000
13134 6290 16325 1 149.00000 418.400000
13134 6291 16068 1 149.00000 418.400000
13135 6292 14510 1 149.00000 418.400000
13135 6293 15021 1 149.00000 418.400000
13135 6294 13959 1 149.00000 418.400000
13136 6295 15795 1 149.00000 418.400000
13136 6296 15745 1 149.00000 418.400000
13137 6297 15784 1 149.00000 418.400000
13137 6298 15863 1 149.00000 418.400000
13137 6299 15382 1 149.00000 418.400000
13137 6300 15476 1 149.00000 418.400000
13138 6301 14443 1 149.00000 418.400000
13138 6302 16139 1 149.00000 418.400000
13138 6303 18196 1 149.00000 418.400000
13139 6304 16067 1 149.00000 418.400000
13139 6305 16018 1 149.00000 418.400000
13140 6306 14176 1 149.00000 418.400000
13140 6307 21837 1 149.00000 418.400000
13140 6308 16257 1 149.00000 418.400000
13141 6309 14919 1 149.00000 418.400000
13141 6310 21714 1 149.00000 418.400000
13142 6311 13748 1 149.00000 418.400000
13142 6312 14325 1 149.00000 418.400000
13142 6313 13162 1 149.00000 418.400000
20922 6314 21855 1 149.00000 418.400000
15394 6315 20922 1 149.00000 418.400000
13143 6316 16026 1 149.00000 418.400000
13143 6317 15826 1 149.00000 418.400000
13143 6318 13887 1 149.00000 418.400000
13144 6319 14901 1 149.00000 418.400000
13144 6320 14538 1 149.00000 418.400000
13086 6321 13144 1 149.00000 418.400000
13144 6322 16308 1 149.00000 418.400000
13145 6323 13673 1 149.00000 418.400000
13145 6324 15293 1 149.00000 418.400000
13146 6325 16368 1 149.00000 418.400000
13146 6326 14013 1 149.00000 418.400000
13146 6327 13588 1 149.00000 418.400000
13147 6328 16372 1 149.00000 418.400000
13147 6329 16435 1 149.00000 418.400000
13147 6330 15770 1 149.00000 418.400000
13148 6331 14601 1 149.00000 418.400000
13148 6332 16270 1 149.00000 418.400000
13148 6333 15305 1 149.00000 418.400000
13148 6334 13918 1 149.00000 418.400000
14466 6335 20934 1 149.00000 418.400000
13149 6336 14318 1 149.00000 418.400000
14318 6337 15838 1 149.00000 418.400000
13150 6338 13657 1 149.00000 418.400000
13150 6339 16163 1 149.00000 418.400000
13151 6340 16517 1 149.00000 418.400000
13151 6341 22332 1 149.00000 418.400000
13151 6342 15232 1 149.00000 418.400000
13152 6343 15556 1 149.00000 418.400000
15556 6344 15644 1 149.00000 418.400000
13152 6345 16190 1 149.00000 418.400000
13153 6346 13470 1 149.00000 418.400000
13153 6347 15281 1 149.00000 418.400000
13153 6348 16441 1 149.00000 418.400000
13153 6349 13317 1 149.00000 418.400000
20946 6350 21762 1 149.00000 418.400000
16380 6351 20946 1 149.00000 418.400000
13154 6352 16332 1 149.00000 418.400000
13154 6353 16145 1 149.00000 418.400000
13155 6354 13321 1 149.00000 418.400000
13155 6355 16508 1 149.00000 418.400000
12763 6356 15624 1 149.00000 418.400000
13156 6357 14194 1 149.00000 418.400000
13157 6358 13876 1 149.00000 418.400000
13157 6359 15135 1 149.00000 418.400000
13158 6360 15644 1 149.00000 418.400000
13935 6361 15448 1 149.00000 418.400000
13158 6362 14924 1 149.00000 418.400000
13158 6363 13935 1 149.00000 418.400000
13159 6364 21573 1 149.00000 418.400000
13159 6365 14301 1 149.00000 418.400000
13159 6366 22095 1 149.00000 418.400000
13159 6367 14654 1 149.00000 418.400000
13160 6368 13361 1 149.00000 418.400000
12632 6369 13160 1 149.00000 418.400000
13160 6370 14052 1 149.00000 418.400000
13161 6371 15116 1 149.00000 418.400000
13161 6372 14557 1 149.00000 418.400000
13161 6373 15320 1 149.00000 418.400000
13162 6374 16325 1 149.00000 418.400000
13162 6375 15438 1 149.00000 418.400000
13163 6376 14935 1 149.00000 418.400000
13163 6377 15149 1 149.00000 418.400000
13164 6378 15909 1 149.00000 418.400000
13164 6379 21561 1 149.00000 418.400000
13164 6380 21762 1 149.00000 418.400000
13165 6381 16169 1 149.00000 418.400000
15256 6382 20958 1 149.00000 418.400000
20970 6383 21186 1 149.00000 418.400000
14466 6384 20970 1 149.00000 418.400000
14059 6385 20982 1 149.00000 418.400000
20982 6386 22248 1 149.00000 418.400000
13166 6387 13827 1 149.00000 418.400000
13166 6388 14298 1 149.00000 418.400000
13166 6389 14694 1 149.00000 418.400000
13166 6390 15870 1 149.00000 418.400000
13167 6391 15701 1 149.00000 418.400000
13167 6392 13172 1 149.00000 418.400000
13167 6393 16232 1 149.00000 418.400000
13167 6394 16355 1 149.00000 418.400000
13426 6395 20994 1 149.00000 418.400000
20994 6396 22065 1 149.00000 418.400000
14414 6397 20994 1 149.00000 418.400000
13168 6398 13304 1 149.00000 418.400000
13168 6399 15666 1 149.00000 418.400000
13304 6400 14804 1 149.00000 418.400000
14883 6401 16126 1 149.00000 418.400000
13169 6402 13790 1 149.00000 418.400000
13169 6403 14854 1 149.00000 418.400000
13170 6404 16380 1 149.00000 418.400000
13170 6405 15097 1 149.00000 418.400000
13170 6406 13184 1 149.00000 418.400000
13171 6407 13574 1 149.00000 418.400000
13171 6408 15931 1 149.00000 418.400000
13172 6409 14863 1 149.00000 418.400000
13173 6410 13584 1 149.00000 418.400000
13173 6411 15729 1 149.00000 418.400000
14565 6412 15725 1 149.00000 418.400000
14542 6413 15725 1 149.00000 418.400000
13174 6414 15725 1 149.00000 418.400000
13175 6415 14894 1 149.00000 418.400000
13176 6416 16119 1 149.00000 418.400000
15710 6417 18028 1 149.00000 418.400000
13176 6418 15710 1 149.00000 418.400000
13177 6419 13480 1 149.00000 418.400000
13177 6420 16048 1 149.00000 418.400000
13178 6421 14309 1 149.00000 418.400000
13178 6422 15507 1 149.00000 418.400000
13179 6423 13318 1 149.00000 418.400000
13180 6424 14056 1 149.00000 418.400000
13180 6425 15968 1 149.00000 418.400000
13180 6426 14210 1 149.00000 418.400000
13180 6427 21438 1 149.00000 418.400000
13181 6428 15678 1 149.00000 418.400000
13181 6429 14431 1 149.00000 418.400000
13182 6430 15403 1 149.00000 418.400000
13182 6431 13588 1 149.00000 418.400000
13183 6432 15955 1 149.00000 418.400000
13183 6433 13603 1 149.00000 418.400000
13184 6434 14782 1 149.00000 418.400000
13184 6435 15215 1 149.00000 418.400000
13184 6436 15067 1 149.00000 418.400000
15215 6437 16262 1 149.00000 418.400000
13185 6438 13926 1 149.00000 418.400000
13185 6439 14191 1 149.00000 418.400000
13186 6440 17818 1 149.00000 418.400000
13186 6441 22182 1 149.00000 418.400000
13186 6442 15457 1 149.00000 418.400000
13187 6443 13687 1 149.00000 418.400000
13187 6444 13469 1 149.00000 418.400000
13187 6445 13545 1 149.00000 418.400000
13187 6446 13857 1 149.00000 418.400000
13188 6447 13595 1 149.00000 418.400000
13188 6448 21627 1 149.00000 418.400000
13188 6449 13940 1 149.00000 418.400000
13189 6450 13600 1 149.00000 418.400000
13189 6451 14801 1 149.00000 418.400000
13189 6452 22077 1 149.00000 418.400000
13190 6453 14475 1 149.00000 418.400000
13190 6454 15449 1 149.00000 418.400000
13190 6455 15667 1 149.00000 418.400000
13191 6456 13836 1 149.00000 418.400000
13191 6457 13264 1 149.00000 418.400000
13191 6458 14159 1 149.00000 418.400000
13191 6459 15850 1 149.00000 418.400000
13192 6460 14424 1 149.00000 418.400000
13192 6461 13789 1 149.00000 418.400000
13192 6462 14067 1 149.00000 418.400000
13192 6463 15191 1 149.00000 418.400000
13193 6464 14452 1 149.00000 418.400000
13193 6465 15251 1 149.00000 418.400000
13193 6466 15735 1 149.00000 418.400000
13194 6467 15295 1 149.00000 418.400000
12438 6468 13939 1 149.00000 418.400000
13195 6469 13825 1 149.00000 418.400000
12438 6470 14673 1 149.00000 418.400000
13196 6471 13983 1 149.00000 418.400000
13196 6472 14490 1 149.00000 418.400000
13197 6473 15594 1 149.00000 418.400000
13197 6474 15257 1 149.00000 418.400000
13197 6475 15680 1 149.00000 418.400000
13198 6476 13364 1 149.00000 418.400000
13198 6477 14823 1 149.00000 418.400000
13198 6478 15453 1 149.00000 418.400000
12792 6479 13199 1 149.00000 418.400000
13200 6480 15768 1 149.00000 418.400000
13200 6481 13914 1 149.00000 418.400000
13200 6482 15002 1 149.00000 418.400000
13201 6483 14848 1 149.00000 418.400000
13201 6484 15473 1 149.00000 418.400000
13201 6485 14296 1 149.00000 418.400000
21018 6486 21540 1 149.00000 418.400000
14330 6487 21018 1 149.00000 418.400000
14270 6488 14330 1 149.00000 418.400000
13202 6489 14663 1 149.00000 418.400000
13203 6490 13963 1 149.00000 418.400000
13203 6491 15357 1 149.00000 418.400000
12232 6492 17706 1 149.00000 418.400000
13204 6493 14423 1 149.00000 418.400000
13204 6494 16041 1 149.00000 418.400000
13204 6495 15526 1 149.00000 418.400000
12026 6496 13204 1 149.00000 418.400000
13205 6497 13904 1 149.00000 418.400000
13205 6498 14771 1 149.00000 418.400000
13205 6499 14323 1 149.00000 418.400000
13205 6500 22323 1 149.00000 418.400000
13206 6501 14805 1 149.00000 418.400000
13206 6502 13328 1 149.00000 418.400000
13207 6503 14182 1 149.00000 418.400000
13207 6504 15917 1 149.00000 418.400000
13208 6505 16207 1 149.00000 418.400000
13208 6506 13523 1 149.00000 418.400000
13209 6507 15634 1 149.00000 418.400000
13210 6508 15028 1 149.00000 418.400000
13210 6509 14997 1 149.00000 418.400000
13210 6510 13461 1 149.00000 418.400000
13210 6511 14604 1 149.00000 418.400000
13211 6512 16284 1 149.00000 418.400000
13212 6513 15579 1 149.00000 418.400000
13212 6514 14931 1 149.00000 418.400000
13213 6515 21600 1 149.00000 418.400000
13213 6516 15551 1 149.00000 418.400000
13214 6517 15626 1 149.00000 418.400000
13214 6518 13489 1 149.00000 418.400000
15626 6519 21870 1 149.00000 418.400000
13215 6520 16140 1 149.00000 418.400000
13215 6521 14175 1 149.00000 418.400000
13216 6522 13293 1 149.00000 418.400000
13216 6523 15277 1 149.00000 418.400000
13216 6524 13982 1 149.00000 418.400000
13217 6525 16203 1 149.00000 418.400000
13985 6526 21042 1 149.00000 418.400000
13218 6527 13387 1 149.00000 418.400000
13218 6528 14118 1 149.00000 418.400000
13218 6529 16402 1 149.00000 418.400000
13219 6530 16332 1 149.00000 418.400000
13219 6531 15906 1 149.00000 418.400000
13220 6532 13966 1 149.00000 418.400000
13220 6533 21819 1 149.00000 418.400000
13220 6534 13486 1 149.00000 418.400000
13220 6535 13261 1 149.00000 418.400000
13221 6536 14108 1 149.00000 418.400000
13221 6537 13746 1 149.00000 418.400000
13222 6538 22329 1 149.00000 418.400000
13222 6539 14472 1 149.00000 418.400000
13224 6540 15363 1 149.00000 418.400000
13224 6541 15518 1 149.00000 418.400000
13224 6542 14444 1 149.00000 418.400000
13224 6543 16302 1 149.00000 418.400000
13225 6544 13348 1 149.00000 418.400000
13225 6545 13934 1 149.00000 418.400000
13934 6546 14446 1 149.00000 418.400000
11629 6547 13751 1 149.00000 418.400000
11629 6548 15614 1 149.00000 418.400000
11629 6549 15576 1 149.00000 418.400000
13227 6550 14161 1 149.00000 418.400000
13227 6551 13723 1 149.00000 418.400000
13723 6552 15812 1 149.00000 418.400000
13228 6553 13564 1 149.00000 418.400000
13228 6554 15208 1 149.00000 418.400000
11521 6555 13229 1 149.00000 418.400000
15883 6556 21054 1 149.00000 418.400000
21054 6557 21162 1 149.00000 418.400000
21066 6558 21801 1 149.00000 418.400000
13230 6559 16237 1 149.00000 418.400000
13230 6560 21126 1 149.00000 418.400000
13230 6561 14373 1 149.00000 418.400000
13230 6562 16427 1 149.00000 418.400000
13231 6563 15007 1 149.00000 418.400000
13231 6564 15919 1 149.00000 418.400000
13231 6565 14909 1 149.00000 418.400000
15940 6566 21078 1 149.00000 418.400000
21078 6567 22299 1 149.00000 418.400000
21078 6568 21714 1 149.00000 418.400000
21090 6569 21891 1 149.00000 418.400000
16030 6570 21090 1 149.00000 418.400000
13232 6571 16113 1 149.00000 418.400000
21102 6572 21900 1 149.00000 418.400000
15247 6573 21102 1 149.00000 418.400000
21558 6574 21900 1 149.00000 418.400000
13233 6575 16277 1 149.00000 418.400000
13233 6576 15069 1 149.00000 418.400000
13233 6577 15262 1 149.00000 418.400000
13234 6578 16291 1 149.00000 418.400000
13234 6579 15119 1 149.00000 418.400000
13234 6580 13678 1 149.00000 418.400000
15753 6581 21114 1 149.00000 418.400000
13235 6582 15098 1 149.00000 418.400000
13235 6583 13720 1 149.00000 418.400000
13235 6584 15842 1 149.00000 418.400000
13235 6585 14883 1 149.00000 418.400000
13236 6586 15093 1 149.00000 418.400000
15093 6587 15812 1 149.00000 418.400000
13959 6588 14788 1 149.00000 418.400000
13237 6589 14788 1 149.00000 418.400000
13237 6590 14702 1 149.00000 418.400000
13237 6591 13860 1 149.00000 418.400000
13238 6592 13714 1 149.00000 418.400000
13238 6593 13285 1 149.00000 418.400000
13239 6594 15538 1 149.00000 418.400000
13239 6595 15597 1 149.00000 418.400000
13239 6596 15381 1 149.00000 418.400000
13240 6597 15840 1 149.00000 418.400000
13240 6598 14578 1 149.00000 418.400000
13240 6599 13873 1 149.00000 418.400000
14120 6600 21126 1 149.00000 418.400000
21126 6601 21858 1 149.00000 418.400000
13241 6602 14878 1 149.00000 418.400000
13241 6603 15443 1 149.00000 418.400000
13241 6604 14765 1 149.00000 418.400000
13241 6605 15650 1 149.00000 418.400000
13242 6606 14406 1 149.00000 418.400000
13242 6607 14726 1 149.00000 418.400000
13243 6608 14526 1 149.00000 418.400000
13243 6609 14244 1 149.00000 418.400000
13243 6610 15217 1 149.00000 418.400000
13243 6611 13789 1 149.00000 418.400000
13244 6612 15309 1 149.00000 418.400000
13244 6613 14714 1 149.00000 418.400000
13244 6614 15623 1 149.00000 418.400000
13245 6615 21855 1 149.00000 418.400000
13237 6616 13245 1 149.00000 418.400000
13245 6617 16039 1 149.00000 418.400000
13246 6618 14799 1 149.00000 418.400000
13246 6619 15790 1 149.00000 418.400000
13247 6620 14319 1 149.00000 418.400000
13247 6621 16091 1 149.00000 418.400000
13670 6622 14319 1 149.00000 418.400000
13248 6623 15264 1 149.00000 418.400000
13248 6624 14932 1 149.00000 418.400000
13249 6625 15495 1 149.00000 418.400000
13249 6626 14880 1 149.00000 418.400000
13249 6627 15622 1 149.00000 418.400000
13249 6628 15330 1 149.00000 418.400000
13250 6629 15272 1 149.00000 418.400000
13250 6630 14857 1 149.00000 418.400000
13251 6631 14475 1 149.00000 418.400000
13251 6632 15724 1 149.00000 418.400000
13253 6633 14282 1 149.00000 418.400000
13253 6634 15142 1 149.00000 418.400000
13253 6635 14463 1 149.00000 418.400000
13254 6636 14200 1 149.00000 418.400000
13254 6637 14388 1 149.00000 418.400000
13254 6638 22191 1 149.00000 418.400000
13566 6639 21138 1 149.00000 418.400000
13255 6640 16079 1 149.00000 418.400000
13255 6641 14169 1 149.00000 418.400000
13255 6642 17748 1 149.00000 418.400000
14751 6643 21150 1 149.00000 418.400000
13256 6644 15927 1 149.00000 418.400000
13127 6645 13256 1 149.00000 418.400000
13256 6646 16586 1 149.00000 418.400000
14982 6647 21162 1 149.00000 418.400000
16352 6648 21174 1 149.00000 418.400000
14597 6649 21174 1 149.00000 418.400000
11435 6650 21174 1 149.00000 418.400000
13257 6651 13642 1 149.00000 418.400000
13257 6652 13719 1 149.00000 418.400000
13257 6653 15072 1 149.00000 418.400000
13257 6654 15867 1 149.00000 418.400000
13258 6655 13371 1 149.00000 418.400000
13258 6656 13575 1 149.00000 418.400000
13258 6657 13907 1 149.00000 418.400000
14582 6658 21186 1 149.00000 418.400000
13259 6659 16014 1 149.00000 418.400000
13259 6660 13499 1 149.00000 418.400000
13259 6661 14358 1 149.00000 418.400000
13260 6662 13732 1 149.00000 418.400000
13260 6663 14706 1 149.00000 418.400000
13261 6664 17818 1 149.00000 418.400000
13261 6665 14542 1 149.00000 418.400000
13262 6666 21639 1 149.00000 418.400000
13262 6667 15449 1 149.00000 418.400000
13263 6668 13635 1 149.00000 418.400000
13263 6669 14569 1 149.00000 418.400000
13263 6670 15630 1 149.00000 418.400000
13264 6671 14644 1 149.00000 418.400000
13264 6672 14909 1 149.00000 418.400000
13265 6673 16399 1 149.00000 418.400000
13265 6674 15681 1 149.00000 418.400000
13265 6675 14566 1 149.00000 418.400000
13266 6676 13390 1 149.00000 418.400000
13266 6677 16507 1 149.00000 418.400000
13266 6678 13417 1 149.00000 418.400000
13267 6679 15847 1 149.00000 418.400000
13267 6680 15960 1 149.00000 418.400000
13267 6681 15528 1 149.00000 418.400000
13267 6682 14968 1 149.00000 418.400000
13268 6683 13823 1 149.00000 418.400000
13269 6684 15709 1 149.00000 418.400000
13270 6685 15495 1 149.00000 418.400000
13270 6686 14212 1 149.00000 418.400000
13271 6687 13583 1 149.00000 418.400000
13272 6688 16412 1 149.00000 418.400000
13272 6689 14367 1 149.00000 418.400000
13272 6690 14901 1 149.00000 418.400000
13273 6691 13394 1 149.00000 418.400000
13273 6692 15415 1 149.00000 418.400000
13273 6693 16279 1 149.00000 418.400000
13273 6694 14768 1 149.00000 418.400000
13274 6695 21687 1 149.00000 418.400000
13274 6696 13680 1 149.00000 418.400000
13274 6697 13360 1 149.00000 418.400000
13274 6698 22314 1 149.00000 418.400000
13275 6699 14974 1 149.00000 418.400000
13275 6700 15621 1 149.00000 418.400000
13275 6701 14162 1 149.00000 418.400000
13275 6702 13849 1 149.00000 418.400000
13276 6703 14487 1 149.00000 418.400000
14487 6704 16425 1 149.00000 418.400000
13277 6705 15517 1 149.00000 418.400000
13277 6706 13578 1 149.00000 418.400000
13278 6707 14057 1 149.00000 418.400000
13278 6708 14328 1 149.00000 418.400000
13279 6709 14152 1 149.00000 418.400000
13279 6710 15418 1 149.00000 418.400000
13280 6711 15865 1 149.00000 418.400000
13281 6712 15344 1 149.00000 418.400000
13281 6713 14536 1 149.00000 418.400000
13281 6714 16518 1 149.00000 418.400000
12739 6715 13281 1 149.00000 418.400000
13282 6716 13625 1 149.00000 418.400000
13283 6717 14678 1 149.00000 418.400000
13283 6718 15956 1 149.00000 418.400000
13283 6719 14183 1 149.00000 418.400000
13283 6720 13899 1 149.00000 418.400000
13284 6721 21663 1 149.00000 418.400000
13284 6722 15937 1 149.00000 418.400000
13284 6723 14015 1 149.00000 418.400000
13285 6724 15869 1 149.00000 418.400000
13286 6725 14428 1 149.00000 418.400000
14524 6726 21198 1 149.00000 418.400000
13287 6727 15049 1 149.00000 418.400000
13287 6728 15252 1 149.00000 418.400000
13288 6729 15569 1 149.00000 418.400000
13288 6730 14988 1 149.00000 418.400000
13288 6731 16349 1 149.00000 418.400000
13289 6732 13400 1 149.00000 418.400000
13289 6733 15592 1 149.00000 418.400000
21834 6734 22212 1 149.00000 418.400000
16477 6735 22212 1 149.00000 418.400000
13290 6736 14541 1 149.00000 418.400000
11863 6737 17230 1 149.00000 418.400000
13291 6738 15371 1 149.00000 418.400000
13291 6739 14119 1 149.00000 418.400000
13291 6740 14987 1 149.00000 418.400000
17664 6741 21210 1 149.00000 418.400000
13940 6742 21210 1 149.00000 418.400000
13292 6743 14747 1 149.00000 418.400000
13292 6744 15680 1 149.00000 418.400000
13292 6745 15640 1 149.00000 418.400000
13293 6746 14890 1 149.00000 418.400000
13293 6747 13484 1 149.00000 418.400000
13294 6748 16226 1 149.00000 418.400000
13294 6749 13452 1 149.00000 418.400000
13294 6750 13765 1 149.00000 418.400000
13294 6751 16406 1 149.00000 418.400000
13295 6752 16512 1 149.00000 418.400000
13295 6753 13725 1 149.00000 418.400000
13295 6754 13537 1 149.00000 418.400000
13295 6755 13651 1 149.00000 418.400000
13296 6756 14632 1 149.00000 418.400000
13296 6757 14472 1 149.00000 418.400000
13297 6758 15299 1 149.00000 418.400000
13298 6759 14085 1 149.00000 418.400000
13298 6760 15762 1 149.00000 418.400000
13298 6761 13630 1 149.00000 418.400000
13534 6762 15392 1 149.00000 418.400000
15374 6763 15392 1 149.00000 418.400000
13299 6764 16474 1 149.00000 418.400000
13574 6765 15223 1 149.00000 418.400000
13300 6766 16165 1 149.00000 418.400000
13300 6767 15223 1 149.00000 418.400000
12318 6768 13301 1 149.00000 418.400000
13301 6769 14057 1 149.00000 418.400000
13301 6770 14396 1 149.00000 418.400000
13302 6771 15307 1 149.00000 418.400000
13302 6772 15689 1 149.00000 418.400000
13302 6773 15374 1 149.00000 418.400000
13303 6774 14310 1 149.00000 418.400000
13303 6775 16226 1 149.00000 418.400000
13303 6776 16289 1 149.00000 418.400000
13304 6777 14390 1 149.00000 418.400000
13168 6778 16353 1 149.00000 418.400000
13304 6779 14483 1 149.00000 418.400000
14185 6780 15705 1 149.00000 418.400000
13305 6781 14185 1 149.00000 418.400000
13305 6782 16204 1 149.00000 418.400000
13306 6783 15777 1 149.00000 418.400000
13306 6784 15797 1 149.00000 418.400000
12038 6785 15575 1 149.00000 418.400000
13307 6786 14762 1 149.00000 418.400000
15575 6787 16526 1 149.00000 418.400000
13308 6788 13771 1 149.00000 418.400000
13308 6789 13706 1 149.00000 418.400000
13308 6790 14609 1 149.00000 418.400000
13309 6791 13549 1 149.00000 418.400000
13309 6792 15108 1 149.00000 418.400000
13309 6793 14306 1 149.00000 418.400000
12345 6794 14734 1 149.00000 418.400000
13310 6795 15710 1 149.00000 418.400000
13311 6796 16396 1 149.00000 418.400000
13311 6797 14392 1 149.00000 418.400000
13312 6798 14785 1 149.00000 418.400000
13312 6799 15945 1 149.00000 418.400000
13312 6800 13797 1 149.00000 418.400000
13313 6801 16214 1 149.00000 418.400000
13313 6802 13332 1 149.00000 418.400000
13313 6803 15829 1 149.00000 418.400000
13314 6804 16369 1 149.00000 418.400000
13314 6805 16233 1 149.00000 418.400000
13314 6806 15480 1 149.00000 418.400000
13315 6807 15606 1 149.00000 418.400000
13315 6808 13869 1 149.00000 418.400000
13315 6809 16475 1 149.00000 418.400000
12836 6810 13431 1 149.00000 418.400000
13317 6811 16259 1 149.00000 418.400000
13318 6812 15827 1 149.00000 418.400000
13319 6813 14484 1 149.00000 418.400000
13319 6814 15130 1 149.00000 418.400000
12712 6815 13320 1 149.00000 418.400000
13320 6816 15505 1 149.00000 418.400000
13321 6817 15065 1 149.00000 418.400000
13321 6818 15447 1 149.00000 418.400000
13322 6819 14874 1 149.00000 418.400000
12990 6820 13322 1 149.00000 418.400000
13322 6821 16194 1 149.00000 418.400000
13227 6822 13322 1 149.00000 418.400000
13323 6823 16229 1 149.00000 418.400000
13323 6824 16086 1 149.00000 418.400000
13325 6825 14582 1 149.00000 418.400000
13325 6826 15629 1 149.00000 418.400000
13325 6827 16726 1 149.00000 418.400000
13326 6828 15904 1 149.00000 418.400000
13326 6829 16404 1 149.00000 418.400000
13326 6830 15417 1 149.00000 418.400000
13327 6831 13369 1 149.00000 418.400000
13327 6832 14099 1 149.00000 418.400000
13328 6833 15715 1 149.00000 418.400000
13328 6834 13975 1 149.00000 418.400000
13329 6835 18084 1 149.00000 418.400000
14553 6836 21705 1 149.00000 418.400000
13329 6837 14553 1 149.00000 418.400000
13330 6838 16478 1 149.00000 418.400000
13330 6839 14687 1 149.00000 418.400000
13331 6840 14864 1 149.00000 418.400000
13332 6841 14815 1 149.00000 418.400000
13332 6842 14802 1 149.00000 418.400000
13333 6843 22068 1 149.00000 418.400000
13333 6844 13617 1 149.00000 418.400000
13334 6845 14814 1 149.00000 418.400000
13334 6846 14478 1 149.00000 418.400000
13334 6847 15566 1 149.00000 418.400000
13334 6848 15988 1 149.00000 418.400000
13335 6849 15438 1 149.00000 418.400000
13335 6850 14932 1 149.00000 418.400000
13335 6851 13748 1 149.00000 418.400000
11565 6852 13336 1 149.00000 418.400000
11968 6853 13336 1 149.00000 418.400000
13337 6854 15390 1 149.00000 418.400000
13337 6855 15695 1 149.00000 418.400000
13338 6856 15711 1 149.00000 418.400000
13338 6857 14413 1 149.00000 418.400000
13338 6858 15337 1 149.00000 418.400000
13338 6859 15595 1 149.00000 418.400000
13339 6860 15651 1 149.00000 418.400000
12410 6861 16304 1 149.00000 418.400000
13339 6862 14587 1 149.00000 418.400000
13340 6863 16121 1 149.00000 418.400000
13341 6864 15875 1 149.00000 418.400000
13341 6865 15027 1 149.00000 418.400000
13341 6866 16232 1 149.00000 418.400000
14138 6867 16427 1 149.00000 418.400000
13342 6868 21858 1 149.00000 418.400000
13342 6869 14138 1 149.00000 418.400000
13343 6870 14922 1 149.00000 418.400000
13343 6871 14719 1 149.00000 418.400000
13344 6872 15792 1 149.00000 418.400000
13344 6873 14688 1 149.00000 418.400000
13344 6874 16074 1 149.00000 418.400000
13345 6875 14308 1 149.00000 418.400000
13345 6876 14075 1 149.00000 418.400000
13345 6877 15888 1 149.00000 418.400000
13346 6878 14878 1 149.00000 418.400000
13346 6879 15609 1 149.00000 418.400000
13347 6880 16437 1 149.00000 418.400000
13347 6881 14910 1 149.00000 418.400000
13347 6882 13908 1 149.00000 418.400000
12078 6883 13348 1 149.00000 418.400000
13348 6884 14275 1 149.00000 418.400000
13349 6885 15690 1 149.00000 418.400000
13349 6886 16217 1 149.00000 418.400000
13350 6887 13898 1 149.00000 418.400000
13351 6888 13695 1 149.00000 418.400000
13352 6889 21822 1 149.00000 418.400000
13352 6890 13862 1 149.00000 418.400000
13353 6891 15770 1 149.00000 418.400000
13353 6892 17650 1 149.00000 418.400000
13354 6893 14159 1 149.00000 418.400000
13354 6894 14714 1 149.00000 418.400000
13355 6895 14594 1 149.00000 418.400000
13355 6896 15273 1 149.00000 418.400000
15273 6897 15464 1 149.00000 418.400000
13355 6898 15505 1 149.00000 418.400000
13356 6899 21678 1 149.00000 418.400000
13356 6900 15605 1 149.00000 418.400000
21234 6901 22086 1 149.00000 418.400000
13357 6902 14721 1 149.00000 418.400000
13357 6903 14040 1 149.00000 418.400000
13357 6904 15041 1 149.00000 418.400000
13358 6905 13807 1 149.00000 418.400000
13359 6906 13526 1 149.00000 418.400000
13359 6907 15733 1 149.00000 418.400000
13359 6908 15648 1 149.00000 418.400000
13359 6909 22050 1 149.00000 418.400000
13360 6910 14129 1 149.00000 418.400000
13361 6911 15035 1 149.00000 418.400000
13361 6912 13576 1 149.00000 418.400000
13362 6913 22158 1 149.00000 418.400000
13362 6914 14776 1 149.00000 418.400000
13362 6915 22335 1 149.00000 418.400000
13363 6916 13574 1 149.00000 418.400000
13363 6917 14599 1 149.00000 418.400000
13364 6918 14311 1 149.00000 418.400000
13364 6919 14992 1 149.00000 418.400000
13364 6920 15099 1 149.00000 418.400000
16280 6921 21246 1 149.00000 418.400000
13365 6922 13875 1 149.00000 418.400000
13365 6923 14395 1 149.00000 418.400000
14155 6924 14395 1 149.00000 418.400000
13366 6925 13583 1 149.00000 418.400000
14900 6926 16544 1 149.00000 418.400000
13367 6927 15066 1 149.00000 418.400000
13367 6928 21951 1 149.00000 418.400000
13367 6929 15296 1 149.00000 418.400000
13368 6930 13961 1 149.00000 418.400000
21258 6931 22263 1 149.00000 418.400000
21258 6932 21684 1 149.00000 418.400000
13369 6933 14074 1 149.00000 418.400000
13369 6934 15410 1 149.00000 418.400000
13370 6935 14112 1 149.00000 418.400000
13370 6936 15037 1 149.00000 418.400000
13370 6937 15370 1 149.00000 418.400000
13371 6938 15373 1 149.00000 418.400000
13371 6939 18238 1 149.00000 418.400000
13371 6940 14017 1 149.00000 418.400000
13372 6941 15668 1 149.00000 418.400000
13372 6942 15613 1 149.00000 418.400000
13372 6943 13651 1 149.00000 418.400000
13373 6944 15954 1 149.00000 418.400000
13373 6945 14754 1 149.00000 418.400000
13374 6946 14152 1 149.00000 418.400000
13374 6947 15884 1 149.00000 418.400000
14429 6948 14891 1 149.00000 418.400000
14891 6949 15067 1 149.00000 418.400000
14891 6950 21270 1 149.00000 418.400000
13375 6951 15568 1 149.00000 418.400000
13375 6952 13616 1 149.00000 418.400000
13375 6953 15652 1 149.00000 418.400000
13375 6954 15567 1 149.00000 418.400000
13376 6955 16365 1 149.00000 418.400000
13376 6956 14799 1 149.00000 418.400000
13376 6957 13712 1 149.00000 418.400000
13377 6958 15930 1 149.00000 418.400000
12461 6959 16508 1 149.00000 418.400000
13378 6960 14293 1 149.00000 418.400000
13352 6961 13379 1 149.00000 418.400000
13380 6962 14721 1 149.00000 418.400000
13380 6963 13697 1 149.00000 418.400000
13697 6964 14477 1 149.00000 418.400000
13613 6965 15172 1 149.00000 418.400000
13381 6966 14978 1 149.00000 418.400000
13381 6967 15172 1 149.00000 418.400000
13382 6968 14835 1 149.00000 418.400000
14835 6969 15286 1 149.00000 418.400000
13383 6970 14787 1 149.00000 418.400000
12350 6971 13606 1 149.00000 418.400000
13384 6972 14471 1 149.00000 418.400000
13384 6973 14276 1 149.00000 418.400000
13384 6974 15869 1 149.00000 418.400000
13385 6975 15266 1 149.00000 418.400000
13385 6976 14589 1 149.00000 418.400000
13385 6977 13610 1 149.00000 418.400000
14693 6978 21282 1 149.00000 418.400000
13386 6979 15929 1 149.00000 418.400000
13386 6980 14470 1 149.00000 418.400000
13386 6981 15371 1 149.00000 418.400000
13387 6982 14991 1 149.00000 418.400000
13387 6983 15214 1 149.00000 418.400000
13388 6984 14518 1 149.00000 418.400000
13388 6985 15239 1 149.00000 418.400000
13388 6986 13721 1 149.00000 418.400000
13389 6987 22233 1 149.00000 418.400000
13389 6988 22044 1 149.00000 418.400000
13390 6989 13611 1 149.00000 418.400000
13390 6990 14984 1 149.00000 418.400000
13391 6991 15543 1 149.00000 418.400000
13391 6992 16172 1 149.00000 418.400000
13392 6993 16018 1 149.00000 418.400000
13392 6994 16265 1 149.00000 418.400000
13393 6995 13903 1 149.00000 418.400000
13393 6996 14474 1 149.00000 418.400000
13394 6997 22134 1 149.00000 418.400000
13395 6998 14020 1 149.00000 418.400000
13395 6999 13630 1 149.00000 418.400000
13396 7000 15700 1 149.00000 418.400000
13397 7001 13838 1 149.00000 418.400000
11534 7002 13398 1 149.00000 418.400000
13399 7003 15655 1 149.00000 418.400000
13399 7004 16143 1 149.00000 418.400000
13399 7005 15406 1 149.00000 418.400000
13400 7006 15442 1 149.00000 418.400000
13401 7007 15105 1 149.00000 418.400000
13401 7008 22317 1 149.00000 418.400000
13401 7009 14705 1 149.00000 418.400000
13402 7010 14342 1 149.00000 418.400000
13402 7011 15609 1 149.00000 418.400000
13402 7012 14895 1 149.00000 418.400000
13403 7013 15022 1 149.00000 418.400000
13403 7014 14358 1 149.00000 418.400000
13403 7015 16014 1 149.00000 418.400000
13403 7016 15584 1 149.00000 418.400000
13404 7017 15563 1 149.00000 418.400000
13404 7018 16332 1 149.00000 418.400000
14626 7019 21306 1 149.00000 418.400000
17524 7020 21306 1 149.00000 418.400000
13405 7021 15896 1 149.00000 418.400000
13405 7022 13549 1 149.00000 418.400000
13405 7023 16340 1 149.00000 418.400000
13406 7024 15684 1 149.00000 418.400000
13406 7025 14129 1 149.00000 418.400000
13406 7026 15535 1 149.00000 418.400000
13406 7027 15836 1 149.00000 418.400000
13407 7028 13898 1 149.00000 418.400000
13407 7029 15018 1 149.00000 418.400000
13407 7030 16289 1 149.00000 418.400000
13407 7031 13452 1 149.00000 418.400000
13408 7032 15737 1 149.00000 418.400000
13408 7033 15877 1 149.00000 418.400000
13408 7034 14461 1 149.00000 418.400000
13409 7035 14101 1 149.00000 418.400000
13409 7036 15207 1 149.00000 418.400000
13409 7037 22347 1 149.00000 418.400000
13410 7038 16126 1 149.00000 418.400000
13410 7039 15132 1 149.00000 418.400000
13410 7040 14404 1 149.00000 418.400000
13410 7041 16186 1 149.00000 418.400000
13411 7042 15313 1 149.00000 418.400000
13411 7043 15200 1 149.00000 418.400000
13412 7044 14415 1 149.00000 418.400000
13412 7045 14290 1 149.00000 418.400000
13412 7046 15222 1 149.00000 418.400000
13413 7047 15950 1 149.00000 418.400000
13413 7048 13806 1 149.00000 418.400000
13413 7049 14271 1 149.00000 418.400000
13413 7050 14792 1 149.00000 418.400000
13414 7051 14995 1 149.00000 418.400000
15990 7052 21330 1 149.00000 418.400000
13415 7053 14228 1 149.00000 418.400000
13415 7054 13685 1 149.00000 418.400000
13416 7055 16454 1 149.00000 418.400000
13417 7056 16475 1 149.00000 418.400000
13417 7057 14247 1 149.00000 418.400000
13418 7058 14016 1 149.00000 418.400000
13418 7059 14221 1 149.00000 418.400000
13418 7060 16006 1 149.00000 418.400000
13419 7061 14307 1 149.00000 418.400000
13419 7062 15192 1 149.00000 418.400000
14307 7063 15664 1 149.00000 418.400000
13419 7064 16950 1 149.00000 418.400000
15422 7065 21342 1 149.00000 418.400000
21342 7066 21513 1 149.00000 418.400000
13420 7067 14489 1 149.00000 418.400000
13420 7068 15702 1 149.00000 418.400000
13420 7069 14978 1 149.00000 418.400000
13420 7070 14302 1 149.00000 418.400000
13421 7071 15778 1 149.00000 418.400000
13421 7072 16291 1 149.00000 418.400000
13421 7073 17608 1 149.00000 418.400000
13422 7074 14964 1 149.00000 418.400000
13422 7075 14051 1 149.00000 418.400000
13422 7076 15684 1 149.00000 418.400000
13423 7077 14818 1 149.00000 418.400000
13423 7078 15376 1 149.00000 418.400000
13424 7079 15868 1 149.00000 418.400000
13424 7080 14578 1 149.00000 418.400000
13424 7081 15271 1 149.00000 418.400000
14578 7082 16058 1 149.00000 418.400000
13425 7083 14535 1 149.00000 418.400000
13425 7084 13586 1 149.00000 418.400000
12405 7085 13426 1 149.00000 418.400000
13426 7086 14843 1 149.00000 418.400000
13427 7087 14574 1 149.00000 418.400000
13427 7088 14143 1 149.00000 418.400000
13427 7089 14412 1 149.00000 418.400000
13428 7090 15946 1 149.00000 418.400000
13546 7091 15992 1 149.00000 418.400000
13428 7092 15992 1 149.00000 418.400000
13428 7093 13567 1 149.00000 418.400000
13429 7094 15626 1 149.00000 418.400000
13430 7095 16098 1 149.00000 418.400000
13430 7096 15742 1 149.00000 418.400000
13430 7097 16241 1 149.00000 418.400000
14582 7098 21354 1 149.00000 418.400000
13431 7099 21585 1 149.00000 418.400000
13431 7100 14577 1 149.00000 418.400000
13432 7101 14858 1 149.00000 418.400000
13432 7102 14640 1 149.00000 418.400000
13433 7103 13735 1 149.00000 418.400000
13433 7104 14137 1 149.00000 418.400000
13434 7105 16204 1 149.00000 418.400000
13434 7106 14394 1 149.00000 418.400000
13434 7107 15182 1 149.00000 418.400000
13435 7108 15998 1 149.00000 418.400000
13435 7109 14889 1 149.00000 418.400000
13435 7110 15057 1 149.00000 418.400000
13435 7111 16117 1 149.00000 418.400000
13436 7112 16499 1 149.00000 418.400000
13436 7113 18210 1 149.00000 418.400000
13436 7114 14890 1 149.00000 418.400000
13437 7115 15140 1 149.00000 418.400000
13437 7116 15813 1 149.00000 418.400000
13437 7117 15400 1 149.00000 418.400000
13438 7118 14656 1 149.00000 418.400000
13438 7119 15117 1 149.00000 418.400000
13438 7120 14923 1 149.00000 418.400000
13439 7121 15655 1 149.00000 418.400000
13439 7122 13922 1 149.00000 418.400000
13439 7123 13474 1 149.00000 418.400000
13440 7124 14628 1 149.00000 418.400000
13440 7125 15832 1 149.00000 418.400000
14628 7126 21816 1 149.00000 418.400000
13441 7127 22164 1 149.00000 418.400000
13441 7128 13626 1 149.00000 418.400000
13441 7129 13517 1 149.00000 418.400000
13441 7130 16046 1 149.00000 418.400000
13442 7131 15844 1 149.00000 418.400000
14741 7132 15844 1 149.00000 418.400000
13443 7133 14681 1 149.00000 418.400000
13443 7134 16368 1 149.00000 418.400000
13444 7135 13634 1 149.00000 418.400000
13444 7136 13772 1 149.00000 418.400000
13444 7137 15338 1 149.00000 418.400000
13445 7138 14815 1 149.00000 418.400000
13445 7139 14660 1 149.00000 418.400000
13445 7140 15960 1 149.00000 418.400000
21378 7141 21999 1 149.00000 418.400000
21378 7142 21747 1 149.00000 418.400000
13446 7143 13595 1 149.00000 418.400000
12844 7144 14376 1 149.00000 418.400000
13446 7145 15029 1 149.00000 418.400000
13447 7146 14660 1 149.00000 418.400000
13447 7147 15814 1 149.00000 418.400000
13447 7148 15934 1 149.00000 418.400000
13448 7149 14918 1 149.00000 418.400000
13448 7150 16371 1 149.00000 418.400000
13448 7151 13515 1 149.00000 418.400000
13449 7152 15055 1 149.00000 418.400000
13985 7153 21390 1 149.00000 418.400000
16295 7154 21390 1 149.00000 418.400000
13450 7155 15988 1 149.00000 418.400000
13450 7156 15208 1 149.00000 418.400000
13450 7157 15687 1 149.00000 418.400000
13451 7158 14451 1 149.00000 418.400000
13451 7159 14192 1 149.00000 418.400000
13451 7160 15951 1 149.00000 418.400000
13451 7161 15249 1 149.00000 418.400000
13452 7162 13750 1 149.00000 418.400000
13452 7163 15945 1 149.00000 418.400000
13453 7164 15869 1 149.00000 418.400000
13453 7165 14435 1 149.00000 418.400000
13453 7166 14365 1 149.00000 418.400000
13454 7167 14881 1 149.00000 418.400000
13455 7168 14590 1 149.00000 418.400000
13455 7169 13717 1 149.00000 418.400000
13455 7170 15269 1 149.00000 418.400000
13456 7171 15425 1 149.00000 418.400000
13457 7172 15391 1 149.00000 418.400000
13457 7173 13742 1 149.00000 418.400000
13457 7174 15756 1 149.00000 418.400000
13458 7175 16411 1 149.00000 418.400000
13458 7176 14816 1 149.00000 418.400000
11876 7177 13458 1 149.00000 418.400000
13459 7178 13726 1 149.00000 418.400000
13459 7179 15476 1 149.00000 418.400000
21402 7180 21753 1 149.00000 418.400000
13460 7181 13572 1 149.00000 418.400000
13460 7182 13813 1 149.00000 418.400000
13461 7183 15727 1 149.00000 418.400000
13462 7184 14931 1 149.00000 418.400000
13462 7185 14010 1 149.00000 418.400000
13463 7186 13724 1 149.00000 418.400000
13463 7187 15576 1 149.00000 418.400000
13463 7188 13839 1 149.00000 418.400000
13463 7189 13637 1 149.00000 418.400000
13464 7190 16128 1 149.00000 418.400000
13464 7191 13901 1 149.00000 418.400000
13464 7192 16239 1 149.00000 418.400000
13464 7193 13490 1 149.00000 418.400000
12976 7194 13465 1 149.00000 418.400000
13465 7195 15730 1 149.00000 418.400000
13466 7196 14587 1 149.00000 418.400000
13466 7197 16196 1 149.00000 418.400000
18546 7198 21414 1 149.00000 418.400000
13467 7199 15885 1 149.00000 418.400000
13467 7200 21786 1 149.00000 418.400000
13468 7201 13755 1 149.00000 418.400000
13468 7202 14326 1 149.00000 418.400000
13469 7203 15513 1 149.00000 418.400000
13469 7204 14626 1 149.00000 418.400000
13470 7205 14988 1 149.00000 418.400000
13470 7206 14343 1 149.00000 418.400000
13471 7207 15552 1 149.00000 418.400000
13471 7208 13801 1 149.00000 418.400000
13472 7209 21546 1 149.00000 418.400000
13474 7210 15447 1 149.00000 418.400000
13474 7211 16037 1 149.00000 418.400000
13474 7212 13668 1 149.00000 418.400000
13475 7213 13880 1 149.00000 418.400000
13476 7214 14224 1 149.00000 418.400000
13476 7215 14127 1 149.00000 418.400000
14224 7216 16246 1 149.00000 418.400000
13477 7217 21645 1 149.00000 418.400000
13478 7218 21690 1 149.00000 418.400000
13478 7219 21651 1 149.00000 418.400000
13478 7220 22101 1 149.00000 418.400000
13478 7221 15632 1 149.00000 418.400000
15832 7222 21426 1 149.00000 418.400000
13505 7223 21426 1 149.00000 418.400000
14184 7224 14261 1 149.00000 418.400000
13479 7225 14261 1 149.00000 418.400000
13479 7226 16336 1 149.00000 418.400000
13480 7227 14392 1 149.00000 418.400000
13481 7228 15849 1 149.00000 418.400000
13481 7229 16218 1 149.00000 418.400000
13481 7230 14774 1 149.00000 418.400000
13481 7231 13517 1 149.00000 418.400000
13482 7232 14894 1 149.00000 418.400000
13174 7233 13482 1 149.00000 418.400000
13482 7234 14542 1 149.00000 418.400000
13483 7235 14402 1 149.00000 418.400000
13483 7236 14775 1 149.00000 418.400000
14915 7237 15915 1 149.00000 418.400000
13484 7238 14698 1 149.00000 418.400000
13484 7239 13786 1 149.00000 418.400000
16048 7240 16457 1 149.00000 418.400000
13485 7241 16048 1 149.00000 418.400000
13485 7242 16489 1 149.00000 418.400000
13486 7243 14565 1 149.00000 418.400000
13486 7244 16174 1 149.00000 418.400000
13487 7245 16255 1 149.00000 418.400000
13487 7246 14361 1 149.00000 418.400000
13488 7247 13542 1 149.00000 418.400000
13488 7248 15161 1 149.00000 418.400000
13488 7249 13567 1 149.00000 418.400000
13488 7250 21915 1 149.00000 418.400000
13489 7251 14077 1 149.00000 418.400000
13866 7252 14077 1 149.00000 418.400000
13490 7253 13561 1 149.00000 418.400000
13491 7254 13849 1 149.00000 418.400000
13492 7255 13978 1 149.00000 418.400000
13492 7256 13691 1 149.00000 418.400000
15914 7257 21438 1 149.00000 418.400000
13493 7258 16415 1 149.00000 418.400000
13493 7259 15781 1 149.00000 418.400000
13494 7260 14637 1 149.00000 418.400000
13494 7261 15341 1 149.00000 418.400000
13495 7262 14739 1 149.00000 418.400000
13495 7263 15937 1 149.00000 418.400000
13495 7264 22185 1 149.00000 418.400000
12034 7265 13496 1 149.00000 418.400000
13496 7266 14262 1 149.00000 418.400000
13497 7267 15092 1 149.00000 418.400000
13504 7268 21450 1 149.00000 418.400000
14317 7269 15183 1 149.00000 418.400000
13499 7270 15183 1 149.00000 418.400000
13500 7271 13586 1 149.00000 418.400000
13500 7272 15317 1 149.00000 418.400000
13500 7273 14551 1 149.00000 418.400000
13500 7274 15385 1 149.00000 418.400000
13501 7275 14339 1 149.00000 418.400000
13501 7276 15701 1 149.00000 418.400000
14470 7277 16000 1 149.00000 418.400000
13502 7278 21801 1 149.00000 418.400000
13502 7279 16000 1 149.00000 418.400000
13502 7280 16250 1 149.00000 418.400000
13503 7281 15380 1 149.00000 418.400000
15026 7282 15380 1 149.00000 418.400000
13081 7283 13524 1 149.00000 418.400000
13504 7284 13531 1 149.00000 418.400000
13504 7285 15355 1 149.00000 418.400000
13504 7286 16894 1 149.00000 418.400000
13505 7287 22128 1 149.00000 418.400000
21717 7288 22128 1 149.00000 418.400000
13506 7289 15670 1 149.00000 418.400000
13506 7290 15095 1 149.00000 418.400000
15670 7291 22227 1 149.00000 418.400000
13507 7292 14409 1 149.00000 418.400000
13507 7293 15496 1 149.00000 418.400000
13507 7294 16023 1 149.00000 418.400000
13508 7295 14499 1 149.00000 418.400000
13508 7296 14704 1 149.00000 418.400000
13508 7297 14116 1 149.00000 418.400000
13510 7298 14028 1 149.00000 418.400000
13510 7299 14789 1 149.00000 418.400000
13510 7300 16104 1 149.00000 418.400000
13511 7301 21786 1 149.00000 418.400000
13511 7302 16852 1 149.00000 418.400000
13512 7303 15184 1 149.00000 418.400000
13512 7304 16457 1 149.00000 418.400000
13512 7305 14998 1 149.00000 418.400000
13513 7306 15271 1 149.00000 418.400000
13513 7307 13888 1 149.00000 418.400000
13158 7308 13513 1 149.00000 418.400000
13514 7309 22137 1 149.00000 418.400000
13514 7310 13571 1 149.00000 418.400000
13514 7311 18448 1 149.00000 418.400000
13514 7312 15378 1 149.00000 418.400000
13515 7313 15146 1 149.00000 418.400000
13515 7314 15156 1 149.00000 418.400000
13516 7315 14833 1 149.00000 418.400000
13516 7316 15299 1 149.00000 418.400000
13518 7317 13914 1 149.00000 418.400000
13518 7318 15974 1 149.00000 418.400000
11709 7319 16020 1 149.00000 418.400000
11709 7320 14446 1 149.00000 418.400000
13520 7321 13885 1 149.00000 418.400000
13520 7322 16343 1 149.00000 418.400000
13521 7323 15488 1 149.00000 418.400000
13521 7324 15479 1 149.00000 418.400000
14211 7325 15488 1 149.00000 418.400000
13715 7326 15330 1 149.00000 418.400000
13523 7327 14462 1 149.00000 418.400000
13523 7328 13715 1 149.00000 418.400000
13524 7329 15575 1 149.00000 418.400000
13525 7330 14961 1 149.00000 418.400000
13526 7331 16519 1 149.00000 418.400000
13526 7332 14526 1 149.00000 418.400000
13526 7333 14424 1 149.00000 418.400000
13527 7334 14350 1 149.00000 418.400000
13527 7335 15962 1 149.00000 418.400000
13527 7336 16362 1 149.00000 418.400000
13527 7337 15376 1 149.00000 418.400000
13528 7338 16236 1 149.00000 418.400000
13528 7339 14449 1 149.00000 418.400000
13528 7340 15019 1 149.00000 418.400000
16460 7341 21522 1 149.00000 418.400000
13529 7342 21522 1 149.00000 418.400000
13529 7343 22119 1 149.00000 418.400000
13529 7344 15428 1 149.00000 418.400000
13530 7345 15896 1 149.00000 418.400000
13530 7346 14686 1 149.00000 418.400000
13530 7347 16420 1 149.00000 418.400000
13531 7348 16485 1 149.00000 418.400000
13531 7349 16433 1 149.00000 418.400000
13531 7350 15989 1 149.00000 418.400000
13532 7351 13638 1 149.00000 418.400000
13532 7352 14407 1 149.00000 418.400000
13532 7353 16463 1 149.00000 418.400000
13533 7354 15122 1 149.00000 418.400000
13533 7355 15642 1 149.00000 418.400000
13533 7356 14276 1 149.00000 418.400000
13534 7357 16106 1 149.00000 418.400000
13299 7358 14772 1 149.00000 418.400000
13299 7359 13534 1 149.00000 418.400000
13535 7360 16284 1 149.00000 418.400000
13535 7361 14784 1 149.00000 418.400000
13535 7362 15985 1 149.00000 418.400000
13536 7363 21540 1 149.00000 418.400000
13536 7364 13879 1 149.00000 418.400000
13536 7365 21954 1 149.00000 418.400000
13537 7366 15537 1 149.00000 418.400000
13538 7367 13710 1 149.00000 418.400000
11384 7368 16275 1 149.00000 418.400000
13539 7369 14231 1 149.00000 418.400000
13540 7370 13932 1 149.00000 418.400000
11653 7371 14514 1 149.00000 418.400000
13540 7372 15867 1 149.00000 418.400000
11667 7373 13307 1 149.00000 418.400000
13541 7374 14628 1 149.00000 418.400000
14305 7375 21498 1 149.00000 418.400000
21498 7376 22047 1 149.00000 418.400000
13543 7377 15445 1 149.00000 418.400000
13543 7378 16392 1 149.00000 418.400000
13543 7379 13897 1 149.00000 418.400000
13543 7380 15235 1 149.00000 418.400000
13544 7381 14320 1 149.00000 418.400000
13544 7382 16363 1 149.00000 418.400000
13545 7383 15561 1 149.00000 418.400000
13547 7384 14514 1 149.00000 418.400000
13547 7385 15226 1 149.00000 418.400000
13547 7386 13738 1 149.00000 418.400000
13547 7387 15631 1 149.00000 418.400000
13548 7388 16065 1 149.00000 418.400000
13548 7389 13868 1 149.00000 418.400000
13549 7390 15901 1 149.00000 418.400000
13549 7391 14979 1 149.00000 418.400000
13550 7392 14425 1 149.00000 418.400000
13550 7393 14497 1 149.00000 418.400000
13552 7394 14118 1 149.00000 418.400000
13552 7395 14859 1 149.00000 418.400000
13552 7396 15629 1 149.00000 418.400000
13553 7397 14016 1 149.00000 418.400000
13553 7398 13657 1 149.00000 418.400000
13554 7399 21795 1 149.00000 418.400000
13554 7400 16488 1 149.00000 418.400000
13555 7401 14766 1 149.00000 418.400000
13555 7402 14212 1 149.00000 418.400000
13555 7403 13625 1 149.00000 418.400000
13555 7404 15495 1 149.00000 418.400000
13556 7405 16088 1 149.00000 418.400000
13556 7406 14114 1 149.00000 418.400000
13556 7407 15789 1 149.00000 418.400000
13557 7408 15707 1 149.00000 418.400000
12416 7409 13565 1 149.00000 418.400000
14476 7410 15707 1 149.00000 418.400000
13558 7411 16009 1 149.00000 418.400000
13558 7412 14187 1 149.00000 418.400000
13558 7413 14831 1 149.00000 418.400000
13559 7414 14166 1 149.00000 418.400000
13560 7415 14440 1 149.00000 418.400000
13560 7416 14707 1 149.00000 418.400000
13561 7417 16001 1 149.00000 418.400000
12860 7418 13562 1 149.00000 418.400000
13562 7419 13856 1 149.00000 418.400000
13562 7420 14349 1 149.00000 418.400000
13563 7421 15563 1 149.00000 418.400000
13563 7422 13829 1 149.00000 418.400000
13564 7423 15843 1 149.00000 418.400000
13565 7424 15002 1 149.00000 418.400000
13565 7425 16478 1 149.00000 418.400000
13565 7426 13776 1 149.00000 418.400000
13566 7427 18112 1 149.00000 418.400000
13566 7428 13992 1 149.00000 418.400000
13566 7429 15451 1 149.00000 418.400000
13567 7430 15368 1 149.00000 418.400000
12134 7431 15313 1 149.00000 418.400000
13567 7432 15313 1 149.00000 418.400000
13568 7433 21765 1 149.00000 418.400000
13569 7434 15444 1 149.00000 418.400000
13569 7435 15811 1 149.00000 418.400000
13569 7436 13602 1 149.00000 418.400000
13570 7437 15533 1 149.00000 418.400000
13570 7438 15154 1 149.00000 418.400000
13570 7439 16416 1 149.00000 418.400000
13571 7440 21681 1 149.00000 418.400000
13571 7441 21693 1 149.00000 418.400000
13572 7442 16212 1 149.00000 418.400000
13573 7443 15081 1 149.00000 418.400000
13573 7444 14552 1 149.00000 418.400000
13573 7445 14519 1 149.00000 418.400000
13300 7446 14919 1 149.00000 418.400000
13575 7447 16426 1 149.00000 418.400000
13575 7448 14449 1 149.00000 418.400000
13576 7449 14239 1 149.00000 418.400000
13576 7450 14188 1 149.00000 418.400000
12672 7451 13957 1 149.00000 418.400000
13577 7452 13851 1 149.00000 418.400000
13577 7453 13720 1 149.00000 418.400000
13578 7454 16514 1 149.00000 418.400000
13578 7455 15240 1 149.00000 418.400000
13578 7456 14539 1 149.00000 418.400000
13579 7457 22089 1 149.00000 418.400000
13579 7458 15723 1 149.00000 418.400000
13580 7459 15605 1 149.00000 418.400000
13580 7460 14615 1 149.00000 418.400000
13580 7461 15714 1 149.00000 418.400000
13581 7462 14704 1 149.00000 418.400000
13581 7463 16257 1 149.00000 418.400000
13582 7464 16174 1 149.00000 418.400000
13582 7465 13966 1 149.00000 418.400000
13582 7466 15138 1 149.00000 418.400000
13583 7467 14061 1 149.00000 418.400000
13583 7468 14550 1 149.00000 418.400000
13469 7469 13584 1 149.00000 418.400000
14192 7470 21513 1 149.00000 418.400000
13585 7471 16150 1 149.00000 418.400000
16011 7472 21516 1 149.00000 418.400000
13586 7473 16005 1 149.00000 418.400000
13587 7474 14757 1 149.00000 418.400000
13587 7475 15128 1 149.00000 418.400000
13587 7476 14990 1 149.00000 418.400000
13247 7477 13587 1 149.00000 418.400000
13588 7478 15170 1 149.00000 418.400000
13589 7479 13684 1 149.00000 418.400000
13589 7480 14026 1 149.00000 418.400000
13590 7481 14371 1 149.00000 418.400000
13590 7482 15519 1 149.00000 418.400000
13590 7483 13622 1 149.00000 418.400000
13591 7484 15166 1 149.00000 418.400000
14651 7485 21519 1 149.00000 418.400000
15903 7486 21519 1 149.00000 418.400000
13592 7487 14223 1 149.00000 418.400000
13592 7488 15236 1 149.00000 418.400000
13592 7489 14786 1 149.00000 418.400000
13593 7490 21795 1 149.00000 418.400000
13593 7491 13686 1 149.00000 418.400000
13593 7492 13718 1 149.00000 418.400000
13594 7493 22026 1 149.00000 418.400000
13594 7494 15324 1 149.00000 418.400000
13595 7495 14362 1 149.00000 418.400000
13595 7496 14158 1 149.00000 418.400000
13612 7497 21525 1 149.00000 418.400000
13596 7498 14327 1 149.00000 418.400000
13596 7499 15560 1 149.00000 418.400000
13596 7500 13900 1 149.00000 418.400000
13596 7501 14102 1 149.00000 418.400000
13597 7502 15283 1 149.00000 418.400000
13597 7503 14277 1 149.00000 418.400000
13597 7504 14271 1 149.00000 418.400000
13598 7505 15787 1 149.00000 418.400000
13365 7506 13598 1 149.00000 418.400000
14512 7507 15080 1 149.00000 418.400000
13599 7508 14512 1 149.00000 418.400000
13599 7509 14949 1 149.00000 418.400000
14241 7510 21531 1 149.00000 418.400000
13600 7511 14141 1 149.00000 418.400000
12105 7512 13600 1 149.00000 418.400000
14142 7513 15910 1 149.00000 418.400000
13818 7514 14142 1 149.00000 418.400000
13601 7515 14933 1 149.00000 418.400000
13602 7516 13785 1 149.00000 418.400000
13602 7517 15905 1 149.00000 418.400000
13603 7518 14327 1 149.00000 418.400000
13603 7519 15351 1 149.00000 418.400000
13604 7520 15434 1 149.00000 418.400000
13604 7521 15391 1 149.00000 418.400000
15391 7522 16214 1 149.00000 418.400000
13605 7523 16358 1 149.00000 418.400000
13605 7524 14805 1 149.00000 418.400000
13605 7525 14025 1 149.00000 418.400000
13606 7526 16102 1 149.00000 418.400000
13606 7527 15021 1 149.00000 418.400000
12965 7528 21534 1 149.00000 418.400000
13874 7529 21534 1 149.00000 418.400000
13607 7530 14824 1 149.00000 418.400000
13607 7531 16231 1 149.00000 418.400000
13607 7532 15367 1 149.00000 418.400000
13608 7533 13857 1 149.00000 418.400000
13608 7534 14626 1 149.00000 418.400000
13609 7535 16438 1 149.00000 418.400000
13610 7536 16138 1 149.00000 418.400000
13610 7537 16370 1 149.00000 418.400000
13611 7538 15474 1 149.00000 418.400000
13612 7539 16329 1 149.00000 418.400000
13612 7540 15231 1 149.00000 418.400000
13613 7541 15950 1 149.00000 418.400000
13613 7542 15532 1 149.00000 418.400000
13613 7543 14190 1 149.00000 418.400000
13614 7544 15758 1 149.00000 418.400000
13615 7545 15919 1 149.00000 418.400000
13615 7546 14906 1 149.00000 418.400000
13617 7547 13777 1 149.00000 418.400000
13618 7548 14186 1 149.00000 418.400000
13618 7549 13856 1 149.00000 418.400000
13618 7550 15225 1 149.00000 418.400000
13619 7551 22404 1 149.00000 418.400000
13619 7552 16505 1 149.00000 418.400000
13620 7553 14848 1 149.00000 418.400000
13620 7554 16474 1 149.00000 418.400000
13621 7555 14177 1 149.00000 418.400000
13622 7556 14943 1 149.00000 418.400000
13622 7557 14767 1 149.00000 418.400000
13622 7558 14248 1 149.00000 418.400000
13883 7559 21537 1 149.00000 418.400000
13623 7560 15503 1 149.00000 418.400000
13623 7561 16399 1 149.00000 418.400000
13623 7562 14703 1 149.00000 418.400000
13623 7563 13828 1 149.00000 418.400000
13624 7564 15115 1 149.00000 418.400000
13624 7565 13734 1 149.00000 418.400000
13625 7566 15863 1 149.00000 418.400000
13626 7567 14554 1 149.00000 418.400000
14554 7568 16205 1 149.00000 418.400000
13626 7569 13997 1 149.00000 418.400000
14140 7570 14616 1 149.00000 418.400000
13627 7571 14140 1 149.00000 418.400000
13627 7572 14419 1 149.00000 418.400000
13628 7573 14560 1 149.00000 418.400000
13628 7574 15265 1 149.00000 418.400000
13628 7575 15939 1 149.00000 418.400000
13631 7576 14234 1 149.00000 418.400000
13631 7577 15455 1 149.00000 418.400000
13632 7578 14886 1 149.00000 418.400000
13633 7579 14680 1 149.00000 418.400000
13633 7580 21603 1 149.00000 418.400000
13633 7581 15206 1 149.00000 418.400000
13634 7582 15142 1 149.00000 418.400000
13635 7583 16288 1 149.00000 418.400000
13636 7584 14248 1 149.00000 418.400000
13636 7585 15087 1 149.00000 418.400000
13637 7586 16007 1 149.00000 418.400000
13637 7587 16369 1 149.00000 418.400000
13638 7588 15711 1 149.00000 418.400000
13638 7589 14090 1 149.00000 418.400000
13638 7590 13735 1 149.00000 418.400000
13639 7591 14551 1 149.00000 418.400000
13639 7592 16231 1 149.00000 418.400000
13639 7593 15474 1 149.00000 418.400000
13640 7594 15053 1 149.00000 418.400000
13640 7595 14557 1 149.00000 418.400000
13640 7596 14695 1 149.00000 418.400000
13641 7597 13852 1 149.00000 418.400000
13641 7598 22439 1 149.00000 418.400000
13642 7599 15919 1 149.00000 418.400000
13642 7600 13998 1 149.00000 418.400000
13643 7601 13647 1 149.00000 418.400000
13643 7602 15501 1 149.00000 418.400000
14124 7603 15150 1 149.00000 418.400000
13644 7604 15082 1 149.00000 418.400000
13644 7605 15150 1 149.00000 418.400000
13644 7606 14975 1 149.00000 418.400000
13645 7607 15740 1 149.00000 418.400000
13646 7608 14427 1 149.00000 418.400000
13646 7609 15147 1 149.00000 418.400000
13647 7610 15408 1 149.00000 418.400000
13648 7611 13995 1 149.00000 418.400000
14107 7612 22140 1 149.00000 418.400000
13649 7613 22140 1 149.00000 418.400000
13649 7614 20430 1 149.00000 418.400000
13650 7615 15803 1 149.00000 418.400000
13650 7616 16500 1 149.00000 418.400000
13650 7617 14968 1 149.00000 418.400000
13652 7618 14017 1 149.00000 418.400000
13652 7619 13907 1 149.00000 418.400000
13652 7620 14543 1 149.00000 418.400000
13653 7621 16238 1 149.00000 418.400000
13653 7622 14496 1 149.00000 418.400000
13653 7623 15133 1 149.00000 418.400000
21543 7624 21870 1 149.00000 418.400000
17160 7625 21543 1 149.00000 418.400000
14811 7626 21543 1 149.00000 418.400000
21546 7627 22344 1 149.00000 418.400000
14672 7628 21546 1 149.00000 418.400000
13654 7629 14992 1 149.00000 418.400000
13654 7630 15432 1 149.00000 418.400000
13654 7631 16222 1 149.00000 418.400000
13655 7632 14659 1 149.00000 418.400000
13655 7633 15092 1 149.00000 418.400000
13655 7634 15946 1 149.00000 418.400000
13655 7635 15161 1 149.00000 418.400000
15430 7636 21552 1 149.00000 418.400000
13656 7637 14027 1 149.00000 418.400000
13656 7638 22278 1 149.00000 418.400000
13656 7639 16034 1 149.00000 418.400000
13657 7640 14500 1 149.00000 418.400000
13657 7641 14443 1 149.00000 418.400000
13658 7642 15979 1 149.00000 418.400000
13658 7643 16124 1 149.00000 418.400000
14370 7644 15718 1 149.00000 418.400000
13659 7645 15718 1 149.00000 418.400000
11907 7646 13659 1 149.00000 418.400000
13660 7647 15420 1 149.00000 418.400000
13660 7648 13894 1 149.00000 418.400000
13661 7649 16006 1 149.00000 418.400000
13661 7650 13739 1 149.00000 418.400000
13662 7651 14494 1 149.00000 418.400000
13662 7652 15274 1 149.00000 418.400000
13662 7653 14230 1 149.00000 418.400000
13663 7654 16394 1 149.00000 418.400000
12915 7655 15825 1 149.00000 418.400000
13664 7656 15177 1 149.00000 418.400000
13665 7657 21768 1 149.00000 418.400000
12500 7658 14990 1 149.00000 418.400000
13666 7659 14675 1 149.00000 418.400000
13666 7660 15585 1 149.00000 418.400000
21555 7661 21936 1 149.00000 418.400000
13770 7662 21555 1 149.00000 418.400000
11862 7663 21936 1 149.00000 418.400000
13667 7664 14522 1 149.00000 418.400000
14484 7665 21558 1 149.00000 418.400000
21558 7666 21633 1 149.00000 418.400000
13669 7667 15202 1 149.00000 418.400000
13670 7668 15605 1 149.00000 418.400000
11475 7669 14146 1 149.00000 418.400000
13034 7670 16098 1 149.00000 418.400000
13671 7671 16198 1 149.00000 418.400000
14935 7672 16198 1 149.00000 418.400000
13672 7673 14975 1 149.00000 418.400000
12926 7674 13673 1 149.00000 418.400000
13674 7675 15239 1 149.00000 418.400000
13674 7676 15613 1 149.00000 418.400000
13674 7677 15119 1 149.00000 418.400000
13675 7678 14779 1 149.00000 418.400000
13675 7679 15847 1 149.00000 418.400000
13675 7680 14763 1 149.00000 418.400000
13676 7681 15213 1 149.00000 418.400000
13676 7682 14406 1 149.00000 418.400000
13677 7683 14509 1 149.00000 418.400000
13677 7684 16376 1 149.00000 418.400000
13677 7685 15781 1 149.00000 418.400000
14699 7686 21561 1 149.00000 418.400000
13969 7687 21564 1 149.00000 418.400000
15326 7688 21564 1 149.00000 418.400000
13679 7689 15383 1 149.00000 418.400000
13679 7690 16223 1 149.00000 418.400000
13680 7691 15744 1 149.00000 418.400000
13680 7692 16153 1 149.00000 418.400000
14707 7693 15467 1 149.00000 418.400000
13681 7694 14001 1 149.00000 418.400000
13681 7695 14707 1 149.00000 418.400000
13681 7696 16073 1 149.00000 418.400000
13682 7697 16455 1 149.00000 418.400000
13682 7698 14525 1 149.00000 418.400000
14336 7699 16455 1 149.00000 418.400000
13683 7700 16282 1 149.00000 418.400000
13683 7701 15659 1 149.00000 418.400000
13684 7702 15840 1 149.00000 418.400000
13684 7703 14454 1 149.00000 418.400000
13685 7704 15220 1 149.00000 418.400000
13685 7705 15745 1 149.00000 418.400000
13686 7706 14126 1 149.00000 418.400000
13686 7707 14683 1 149.00000 418.400000
13687 7708 22257 1 149.00000 418.400000
13687 7709 15561 1 149.00000 418.400000
13687 7710 15169 1 149.00000 418.400000
21567 7711 22158 1 149.00000 418.400000
14329 7712 21567 1 149.00000 418.400000
13688 7713 15436 1 149.00000 418.400000
13688 7714 21294 1 149.00000 418.400000
13689 7715 16327 1 149.00000 418.400000
13689 7716 16078 1 149.00000 418.400000
13689 7717 14611 1 149.00000 418.400000
13690 7718 16419 1 149.00000 418.400000
13690 7719 15291 1 149.00000 418.400000
13690 7720 15610 1 149.00000 418.400000
13691 7721 14683 1 149.00000 418.400000
13692 7722 13936 1 149.00000 418.400000
13692 7723 16014 1 149.00000 418.400000
13692 7724 14333 1 149.00000 418.400000
13692 7725 15091 1 149.00000 418.400000
13693 7726 14522 1 149.00000 418.400000
13693 7727 15808 1 149.00000 418.400000
13693 7728 14501 1 149.00000 418.400000
13694 7729 16377 1 149.00000 418.400000
13694 7730 14986 1 149.00000 418.400000
13695 7731 14491 1 149.00000 418.400000
17454 7732 21570 1 149.00000 418.400000
21570 7733 22218 1 149.00000 418.400000
15568 7734 21570 1 149.00000 418.400000
13696 7735 15838 1 149.00000 418.400000
13696 7736 14721 1 149.00000 418.400000
13696 7737 14018 1 149.00000 418.400000
13697 7738 14881 1 149.00000 418.400000
13380 7739 14692 1 149.00000 418.400000
11561 7740 13697 1 149.00000 418.400000
13698 7741 22200 1 149.00000 418.400000
13698 7742 21840 1 149.00000 418.400000
13698 7743 14449 1 149.00000 418.400000
13698 7744 15609 1 149.00000 418.400000
13699 7745 15911 1 149.00000 418.400000
13700 7746 15279 1 149.00000 418.400000
13700 7747 14567 1 149.00000 418.400000
13700 7748 14353 1 149.00000 418.400000
13700 7749 15443 1 149.00000 418.400000
13702 7750 15867 1 149.00000 418.400000
13702 7751 15226 1 149.00000 418.400000
13703 7752 15925 1 149.00000 418.400000
13703 7753 15595 1 149.00000 418.400000
13703 7754 15870 1 149.00000 418.400000
13704 7755 16452 1 149.00000 418.400000
13704 7756 15232 1 149.00000 418.400000
13704 7757 16422 1 149.00000 418.400000
13705 7758 15881 1 149.00000 418.400000
12527 7759 16371 1 149.00000 418.400000
13706 7760 15655 1 149.00000 418.400000
12733 7761 16093 1 149.00000 418.400000
13708 7762 13879 1 149.00000 418.400000
13716 7763 13879 1 149.00000 418.400000
13708 7764 15831 1 149.00000 418.400000
11781 7765 16488 1 149.00000 418.400000
13709 7766 15153 1 149.00000 418.400000
13709 7767 14683 1 149.00000 418.400000
13710 7768 14813 1 149.00000 418.400000
14937 7769 21573 1 149.00000 418.400000
16978 7770 21573 1 149.00000 418.400000
13711 7771 16191 1 149.00000 418.400000
13711 7772 17426 1 149.00000 418.400000
11535 7773 13711 1 149.00000 418.400000
14533 7774 15652 1 149.00000 418.400000
13712 7775 14799 1 149.00000 418.400000
13712 7776 15652 1 149.00000 418.400000
13713 7777 13785 1 149.00000 418.400000
13714 7778 16312 1 149.00000 418.400000
13714 7779 14365 1 149.00000 418.400000
13715 7780 15143 1 149.00000 418.400000
13523 7781 14938 1 149.00000 418.400000
13715 7782 16317 1 149.00000 418.400000
13716 7783 21018 1 149.00000 418.400000
14495 7784 16218 1 149.00000 418.400000
13716 7785 14495 1 149.00000 418.400000
13717 7786 14332 1 149.00000 418.400000
13717 7787 15526 1 149.00000 418.400000
13718 7788 14750 1 149.00000 418.400000
13718 7789 15998 1 149.00000 418.400000
13718 7790 16488 1 149.00000 418.400000
13719 7791 15168 1 149.00000 418.400000
13720 7792 15512 1 149.00000 418.400000
13721 7793 15163 1 149.00000 418.400000
13721 7794 16475 1 149.00000 418.400000
13721 7795 14824 1 149.00000 418.400000
13722 7796 16159 1 149.00000 418.400000
13722 7797 14144 1 149.00000 418.400000
13724 7798 16110 1 149.00000 418.400000
13724 7799 14114 1 149.00000 418.400000
13921 7800 21576 1 149.00000 418.400000
13725 7801 15360 1 149.00000 418.400000
13725 7802 16130 1 149.00000 418.400000
13726 7803 14285 1 149.00000 418.400000
13727 7804 15287 1 149.00000 418.400000
21579 7805 21654 1 149.00000 418.400000
21579 7806 22236 1 149.00000 418.400000
13728 7807 21888 1 149.00000 418.400000
13729 7808 14972 1 149.00000 418.400000
13729 7809 13949 1 149.00000 418.400000
13729 7810 14902 1 149.00000 418.400000
13729 7811 15602 1 149.00000 418.400000
13995 7812 21582 1 149.00000 418.400000
21582 7813 22369 1 149.00000 418.400000
13730 7814 15714 1 149.00000 418.400000
13730 7815 13816 1 149.00000 418.400000
13731 7816 15759 1 149.00000 418.400000
13731 7817 15338 1 149.00000 418.400000
21636 7818 22191 1 149.00000 418.400000
15824 7819 21636 1 149.00000 418.400000
12319 7820 15220 1 149.00000 418.400000
13733 7821 15550 1 149.00000 418.400000
13733 7822 15195 1 149.00000 418.400000
13734 7823 14073 1 149.00000 418.400000
13734 7824 16458 1 149.00000 418.400000
13734 7825 15845 1 149.00000 418.400000
13736 7826 16089 1 149.00000 418.400000
13736 7827 16447 1 149.00000 418.400000
13737 7828 16238 1 149.00000 418.400000
13737 7829 16093 1 149.00000 418.400000
13738 7830 16523 1 149.00000 418.400000
13738 7831 15036 1 149.00000 418.400000
16283 7832 16502 1 149.00000 418.400000
13739 7833 16502 1 149.00000 418.400000
13740 7834 21879 1 149.00000 418.400000
13740 7835 15032 1 149.00000 418.400000
13740 7836 14715 1 149.00000 418.400000
13741 7837 14506 1 149.00000 418.400000
13741 7838 14725 1 149.00000 418.400000
13742 7839 14064 1 149.00000 418.400000
13743 7840 14527 1 149.00000 418.400000
13743 7841 13843 1 149.00000 418.400000
21585 7842 21747 1 149.00000 418.400000
13744 7843 22155 1 149.00000 418.400000
13744 7844 13770 1 149.00000 418.400000
13744 7845 16172 1 149.00000 418.400000
13745 7846 14731 1 149.00000 418.400000
13745 7847 13746 1 149.00000 418.400000
13746 7848 14603 1 149.00000 418.400000
13746 7849 15490 1 149.00000 418.400000
13747 7850 14637 1 149.00000 418.400000
15578 7851 21942 1 149.00000 418.400000
13747 7852 15578 1 149.00000 418.400000
13748 7853 15949 1 149.00000 418.400000
13749 7854 15257 1 149.00000 418.400000
13749 7855 13774 1 149.00000 418.400000
13750 7856 15601 1 149.00000 418.400000
13750 7857 14362 1 149.00000 418.400000
13750 7858 16066 1 149.00000 418.400000
13871 7859 21588 1 149.00000 418.400000
13751 7860 16628 1 149.00000 418.400000
13751 7861 22158 1 149.00000 418.400000
13752 7862 21816 1 149.00000 418.400000
13752 7863 22394 1 149.00000 418.400000
13752 7864 16485 1 149.00000 418.400000
13176 7865 13753 1 149.00000 418.400000
13753 7866 14511 1 149.00000 418.400000
13753 7867 14346 1 149.00000 418.400000
13753 7868 16441 1 149.00000 418.400000
13755 7869 16095 1 149.00000 418.400000
13755 7870 13802 1 149.00000 418.400000
13756 7871 15336 1 149.00000 418.400000
13756 7872 14473 1 149.00000 418.400000
13757 7873 15487 1 149.00000 418.400000
13757 7874 16019 1 149.00000 418.400000
13758 7875 14617 1 149.00000 418.400000
13758 7876 14055 1 149.00000 418.400000
13758 7877 22218 1 149.00000 418.400000
13329 7878 13759 1 149.00000 418.400000
13759 7879 15517 1 149.00000 418.400000
13759 7880 16164 1 149.00000 418.400000
13760 7881 15890 1 149.00000 418.400000
13760 7882 16185 1 149.00000 418.400000
13761 7883 15123 1 149.00000 418.400000
13761 7884 15542 1 149.00000 418.400000
13761 7885 13850 1 149.00000 418.400000
13762 7886 15745 1 149.00000 418.400000
13762 7887 15795 1 149.00000 418.400000
13762 7888 15071 1 149.00000 418.400000
13763 7889 16343 1 149.00000 418.400000
13763 7890 15948 1 149.00000 418.400000
13763 7891 14701 1 149.00000 418.400000
13764 7892 14201 1 149.00000 418.400000
13764 7893 15151 1 149.00000 418.400000
13764 7894 13783 1 149.00000 418.400000
13765 7895 16011 1 149.00000 418.400000
13765 7896 16066 1 149.00000 418.400000
13765 7897 18738 1 149.00000 418.400000
13766 7898 14345 1 149.00000 418.400000
13766 7899 14681 1 149.00000 418.400000
13766 7900 15536 1 149.00000 418.400000
13767 7901 14476 1 149.00000 418.400000
13768 7902 16248 1 149.00000 418.400000
13768 7903 14247 1 149.00000 418.400000
13769 7904 16111 1 149.00000 418.400000
13769 7905 14126 1 149.00000 418.400000
13771 7906 14601 1 149.00000 418.400000
13771 7907 14079 1 149.00000 418.400000
21591 7908 22326 1 149.00000 418.400000
13772 7909 22409 1 149.00000 418.400000
13772 7910 13911 1 149.00000 418.400000
13773 7911 16272 1 149.00000 418.400000
13773 7912 14976 1 149.00000 418.400000
13774 7913 13987 1 149.00000 418.400000
13774 7914 14764 1 149.00000 418.400000
13774 7915 15985 1 149.00000 418.400000
13775 7916 16141 1 149.00000 418.400000
13775 7917 15935 1 149.00000 418.400000
13776 7918 15262 1 149.00000 418.400000
13776 7919 14476 1 149.00000 418.400000
13776 7920 15560 1 149.00000 418.400000
13777 7921 14852 1 149.00000 418.400000
13777 7922 14229 1 149.00000 418.400000
13778 7923 15041 1 149.00000 418.400000
13778 7924 16008 1 149.00000 418.400000
13778 7925 13833 1 149.00000 418.400000
13779 7926 15435 1 149.00000 418.400000
13780 7927 16491 1 149.00000 418.400000
13780 7928 14299 1 149.00000 418.400000
13781 7929 16313 1 149.00000 418.400000
13781 7930 15234 1 149.00000 418.400000
13781 7931 13846 1 149.00000 418.400000
15936 7932 21594 1 149.00000 418.400000
17944 7933 21594 1 149.00000 418.400000
13782 7934 16181 1 149.00000 418.400000
13782 7935 15673 1 149.00000 418.400000
13782 7936 14289 1 149.00000 418.400000
13783 7937 15734 1 149.00000 418.400000
13783 7938 14157 1 149.00000 418.400000
13783 7939 14810 1 149.00000 418.400000
13784 7940 16415 1 149.00000 418.400000
13784 7941 14722 1 149.00000 418.400000
13785 7942 15244 1 149.00000 418.400000
13786 7943 14093 1 149.00000 418.400000
13786 7944 15841 1 149.00000 418.400000
14672 7945 21597 1 149.00000 418.400000
13787 7946 14368 1 149.00000 418.400000
13787 7947 15457 1 149.00000 418.400000
13787 7948 13966 1 149.00000 418.400000
13788 7949 15859 1 149.00000 418.400000
13789 7950 15075 1 149.00000 418.400000
13790 7951 16253 1 149.00000 418.400000
13790 7952 15136 1 149.00000 418.400000
12899 7953 13790 1 149.00000 418.400000
13791 7954 16352 1 149.00000 418.400000
13792 7955 16325 1 149.00000 418.400000
21600 7956 22146 1 149.00000 418.400000
13793 7957 16251 1 149.00000 418.400000
13793 7958 14245 1 149.00000 418.400000
13793 7959 15409 1 149.00000 418.400000
13794 7960 15086 1 149.00000 418.400000
13794 7961 16364 1 149.00000 418.400000
13795 7962 16442 1 149.00000 418.400000
13796 7963 15812 1 149.00000 418.400000
13796 7964 15551 1 149.00000 418.400000
13796 7965 16033 1 149.00000 418.400000
13796 7966 15439 1 149.00000 418.400000
13797 7967 15472 1 149.00000 418.400000
13797 7968 13997 1 149.00000 418.400000
13799 7969 15096 1 149.00000 418.400000
13799 7970 15143 1 149.00000 418.400000
13799 7971 14880 1 149.00000 418.400000
16348 7972 16385 1 149.00000 418.400000
14580 7973 16348 1 149.00000 418.400000
13800 7974 16348 1 149.00000 418.400000
13801 7975 15794 1 149.00000 418.400000
13801 7976 14654 1 149.00000 418.400000
13802 7977 14464 1 149.00000 418.400000
13803 7978 22317 1 149.00000 418.400000
13803 7979 22092 1 149.00000 418.400000
13803 7980 16754 1 149.00000 418.400000
13804 7981 17538 1 149.00000 418.400000
13805 7982 16127 1 149.00000 418.400000
13805 7983 15650 1 149.00000 418.400000
13806 7984 16448 1 149.00000 418.400000
13806 7985 14708 1 149.00000 418.400000
13807 7986 14923 1 149.00000 418.400000
13807 7987 15504 1 149.00000 418.400000
13807 7988 16407 1 149.00000 418.400000
13808 7989 14255 1 149.00000 418.400000
13808 7990 22332 1 149.00000 418.400000
13808 7991 22302 1 149.00000 418.400000
13809 7992 15281 1 149.00000 418.400000
13809 7993 14346 1 149.00000 418.400000
13810 7994 15860 1 149.00000 418.400000
13811 7995 14847 1 149.00000 418.400000
13811 7996 14784 1 149.00000 418.400000
13811 7997 15693 1 149.00000 418.400000
13812 7998 15919 1 149.00000 418.400000
13812 7999 14051 1 149.00000 418.400000
13812 8000 14727 1 149.00000 418.400000
13814 8001 14504 1 149.00000 418.400000
13814 8002 14545 1 149.00000 418.400000
13814 8003 15757 1 149.00000 418.400000
13815 8004 14901 1 149.00000 418.400000
13815 8005 15134 1 149.00000 418.400000
13815 8006 15976 1 149.00000 418.400000
13815 8007 14052 1 149.00000 418.400000
13816 8008 15605 1 149.00000 418.400000
13816 8009 14584 1 149.00000 418.400000
13817 8010 13976 1 149.00000 418.400000
13817 8011 21789 1 149.00000 418.400000
15755 8012 16572 1 149.00000 418.400000
16235 8013 16572 1 149.00000 418.400000
13601 8014 13818 1 149.00000 418.400000
13819 8015 16174 1 149.00000 418.400000
13819 8016 14269 1 149.00000 418.400000
13819 8017 16461 1 149.00000 418.400000
13819 8018 14749 1 149.00000 418.400000
13820 8019 15436 1 149.00000 418.400000
13820 8020 16438 1 149.00000 418.400000
13820 8021 14397 1 149.00000 418.400000
13122 8022 13820 1 149.00000 418.400000
13821 8023 15324 1 149.00000 418.400000
13821 8024 14871 1 149.00000 418.400000
13822 8025 16363 1 149.00000 418.400000
13822 8026 15830 1 149.00000 418.400000
13822 8027 15287 1 149.00000 418.400000
13823 8028 16209 1 149.00000 418.400000
13824 8029 13950 1 149.00000 418.400000
13824 8030 16466 1 149.00000 418.400000
13824 8031 14156 1 149.00000 418.400000
13824 8032 15739 1 149.00000 418.400000
13825 8033 14333 1 149.00000 418.400000
13825 8034 14368 1 149.00000 418.400000
13825 8035 14822 1 149.00000 418.400000
13826 8036 14455 1 149.00000 418.400000
13826 8037 15088 1 149.00000 418.400000
13827 8038 15633 1 149.00000 418.400000
13827 8039 15525 1 149.00000 418.400000
13828 8040 15265 1 149.00000 418.400000
13828 8041 14080 1 149.00000 418.400000
13829 8042 13930 1 149.00000 418.400000
14999 8043 16586 1 149.00000 418.400000
14999 8044 22071 1 149.00000 418.400000
16936 8045 21606 1 149.00000 418.400000
13830 8046 16323 1 149.00000 418.400000
13831 8047 15667 1 149.00000 418.400000
13831 8048 15671 1 149.00000 418.400000
13832 8049 15105 1 149.00000 418.400000
13832 8050 15780 1 149.00000 418.400000
13833 8051 14391 1 149.00000 418.400000
13833 8052 13885 1 149.00000 418.400000
13835 8053 15267 1 149.00000 418.400000
13835 8054 22095 1 149.00000 418.400000
13836 8055 14965 1 149.00000 418.400000
13836 8056 14399 1 149.00000 418.400000
11786 8057 13836 1 149.00000 418.400000
13837 8058 21828 1 149.00000 418.400000
13837 8059 15350 1 149.00000 418.400000
13838 8060 15344 1 149.00000 418.400000
13838 8061 14613 1 149.00000 418.400000
13839 8062 14776 1 149.00000 418.400000
13840 8063 15729 1 149.00000 418.400000
13841 8064 15993 1 149.00000 418.400000
13841 8065 16092 1 149.00000 418.400000
13841 8066 14392 1 149.00000 418.400000
16600 8067 22209 1 149.00000 418.400000
13842 8068 14072 1 149.00000 418.400000
13842 8069 15440 1 149.00000 418.400000
13843 8070 15050 1 149.00000 418.400000
13843 8071 14288 1 149.00000 418.400000
13844 8072 15434 1 149.00000 418.400000
13845 8073 16302 1 149.00000 418.400000
13846 8074 15056 1 149.00000 418.400000
13847 8075 14226 1 149.00000 418.400000
13847 8076 14945 1 149.00000 418.400000
13847 8077 15611 1 149.00000 418.400000
13848 8078 14036 1 149.00000 418.400000
13848 8079 15146 1 149.00000 418.400000
13848 8080 14833 1 149.00000 418.400000
21609 8081 22356 1 149.00000 418.400000
13849 8082 15396 1 149.00000 418.400000
13849 8083 14993 1 149.00000 418.400000
13491 8084 21717 1 149.00000 418.400000
13850 8085 15228 1 149.00000 418.400000
13850 8086 14689 1 149.00000 418.400000
13851 8087 15153 1 149.00000 418.400000
13851 8088 15098 1 149.00000 418.400000
14452 8089 21612 1 149.00000 418.400000
12606 8090 21612 1 149.00000 418.400000
21615 8091 21810 1 149.00000 418.400000
14768 8092 21615 1 149.00000 418.400000
16866 8093 21615 1 149.00000 418.400000
13852 8094 14201 1 149.00000 418.400000
13852 8095 17580 1 149.00000 418.400000
13853 8096 15692 1 149.00000 418.400000
13853 8097 22444 1 149.00000 418.400000
13854 8098 16002 1 149.00000 418.400000
15581 8099 15921 1 149.00000 418.400000
13854 8100 14061 1 149.00000 418.400000
13854 8101 15921 1 149.00000 418.400000
13855 8102 14808 1 149.00000 418.400000
13855 8103 15902 1 149.00000 418.400000
13855 8104 13961 1 149.00000 418.400000
14363 8105 15704 1 149.00000 418.400000
14363 8106 21618 1 149.00000 418.400000
13858 8107 15620 1 149.00000 418.400000
13859 8108 14748 1 149.00000 418.400000
13859 8109 15884 1 149.00000 418.400000
13859 8110 16339 1 149.00000 418.400000
13860 8111 21855 1 149.00000 418.400000
13860 8112 15880 1 149.00000 418.400000
13861 8113 15360 1 149.00000 418.400000
13861 8114 13869 1 149.00000 418.400000
12214 8115 15255 1 149.00000 418.400000
13862 8116 16381 1 149.00000 418.400000
13863 8117 15103 1 149.00000 418.400000
13863 8118 15349 1 149.00000 418.400000
13864 8119 16087 1 149.00000 418.400000
13864 8120 15760 1 149.00000 418.400000
13864 8121 16017 1 149.00000 418.400000
13476 8122 13865 1 149.00000 418.400000
13866 8123 15980 1 149.00000 418.400000
13866 8124 16150 1 149.00000 418.400000
13867 8125 14074 1 149.00000 418.400000
13867 8126 16053 1 149.00000 418.400000
13868 8127 16407 1 149.00000 418.400000
13868 8128 15358 1 149.00000 418.400000
13868 8129 14259 1 149.00000 418.400000
13869 8130 16130 1 149.00000 418.400000
13869 8131 14518 1 149.00000 418.400000
13870 8132 14595 1 149.00000 418.400000
13870 8133 16320 1 149.00000 418.400000
13871 8134 14996 1 149.00000 418.400000
13871 8135 14985 1 149.00000 418.400000
13872 8136 13897 1 149.00000 418.400000
13872 8137 14656 1 149.00000 418.400000
13872 8138 15628 1 149.00000 418.400000
13873 8139 16220 1 149.00000 418.400000
13873 8140 15503 1 149.00000 418.400000
13873 8141 15334 1 149.00000 418.400000
13874 8142 15909 1 149.00000 418.400000
13875 8143 14888 1 149.00000 418.400000
13875 8144 14916 1 149.00000 418.400000
13876 8145 16106 1 149.00000 418.400000
13877 8146 14877 1 149.00000 418.400000
13877 8147 16114 1 149.00000 418.400000
14313 8148 15932 1 149.00000 418.400000
13878 8149 15932 1 149.00000 418.400000
13708 8150 15696 1 149.00000 418.400000
13880 8151 14002 1 149.00000 418.400000
13880 8152 15507 1 149.00000 418.400000
13881 8153 14850 1 149.00000 418.400000
13882 8154 15046 1 149.00000 418.400000
13882 8155 15178 1 149.00000 418.400000
15046 8156 15500 1 149.00000 418.400000
13882 8157 14344 1 149.00000 418.400000
13883 8158 14781 1 149.00000 418.400000
13883 8159 16366 1 149.00000 418.400000
13884 8160 16522 1 149.00000 418.400000
11741 8161 14570 1 149.00000 418.400000
11741 8162 13884 1 149.00000 418.400000
13885 8163 14038 1 149.00000 418.400000
13885 8164 15858 1 149.00000 418.400000
13886 8165 15363 1 149.00000 418.400000
11734 8166 16175 1 149.00000 418.400000
13887 8167 16194 1 149.00000 418.400000
13888 8168 14439 1 149.00000 418.400000
13889 8169 14874 1 149.00000 418.400000
13889 8170 16173 1 149.00000 418.400000
13889 8171 14058 1 149.00000 418.400000
15219 8172 21621 1 149.00000 418.400000
17076 8173 21621 1 149.00000 418.400000
15619 8174 21621 1 149.00000 418.400000
13890 8175 14158 1 149.00000 418.400000
13890 8176 15029 1 149.00000 418.400000
13890 8177 14943 1 149.00000 418.400000
13890 8178 14865 1 149.00000 418.400000
13891 8179 15648 1 149.00000 418.400000
13891 8180 14878 1 149.00000 418.400000
13891 8181 14635 1 149.00000 418.400000
13891 8182 15242 1 149.00000 418.400000
13892 8183 15874 1 149.00000 418.400000
13892 8184 14653 1 149.00000 418.400000
13893 8185 15792 1 149.00000 418.400000
13894 8186 13952 1 149.00000 418.400000
13894 8187 16248 1 149.00000 418.400000
13894 8188 15496 1 149.00000 418.400000
13895 8189 15052 1 149.00000 418.400000
13895 8190 14872 1 149.00000 418.400000
13895 8191 15005 1 149.00000 418.400000
13896 8192 14432 1 149.00000 418.400000
13896 8193 14008 1 149.00000 418.400000
13896 8194 14941 1 149.00000 418.400000
13897 8195 14899 1 149.00000 418.400000
13897 8196 14278 1 149.00000 418.400000
13898 8197 15361 1 149.00000 418.400000
16614 8198 21693 1 149.00000 418.400000
13899 8199 13922 1 149.00000 418.400000
13899 8200 15065 1 149.00000 418.400000
13899 8201 16161 1 149.00000 418.400000
13900 8202 15285 1 149.00000 418.400000
13901 8203 14485 1 149.00000 418.400000
13901 8204 14433 1 149.00000 418.400000
13902 8205 16210 1 149.00000 418.400000
13902 8206 16419 1 149.00000 418.400000
13902 8207 15598 1 149.00000 418.400000
13903 8208 15992 1 149.00000 418.400000
13903 8209 15918 1 149.00000 418.400000
13904 8210 16409 1 149.00000 418.400000
12405 8211 14116 1 149.00000 418.400000
11440 8212 12674 1 149.00000 418.400000
13906 8213 22095 1 149.00000 418.400000
13907 8214 15518 1 149.00000 418.400000
13907 8215 14630 1 149.00000 418.400000
14440 8216 16431 1 149.00000 418.400000
13908 8217 14440 1 149.00000 418.400000
13909 8218 16294 1 149.00000 418.400000
13909 8219 14711 1 149.00000 418.400000
13910 8220 15590 1 149.00000 418.400000
13911 8221 15759 1 149.00000 418.400000
15614 8222 16628 1 149.00000 418.400000
13912 8223 15607 1 149.00000 418.400000
13912 8224 15155 1 149.00000 418.400000
13912 8225 16504 1 149.00000 418.400000
13913 8226 16105 1 149.00000 418.400000
13913 8227 14134 1 149.00000 418.400000
13913 8228 16136 1 149.00000 418.400000
13915 8229 15319 1 149.00000 418.400000
13915 8230 16463 1 149.00000 418.400000
13915 8231 14098 1 149.00000 418.400000
13915 8232 14597 1 149.00000 418.400000
13916 8233 15882 1 149.00000 418.400000
13916 8234 18098 1 149.00000 418.400000
13917 8235 14716 1 149.00000 418.400000
13917 8236 16077 1 149.00000 418.400000
21624 8237 21705 1 149.00000 418.400000
13918 8238 16413 1 149.00000 418.400000
13918 8239 15512 1 149.00000 418.400000
14667 8240 16307 1 149.00000 418.400000
13919 8241 14940 1 149.00000 418.400000
13919 8242 16307 1 149.00000 418.400000
13920 8243 14868 1 149.00000 418.400000
13920 8244 14073 1 149.00000 418.400000
13920 8245 15466 1 149.00000 418.400000
14865 8246 21627 1 149.00000 418.400000
13921 8247 15404 1 149.00000 418.400000
13922 8248 14258 1 149.00000 418.400000
13923 8249 15354 1 149.00000 418.400000
13923 8250 16035 1 149.00000 418.400000
13923 8251 14936 1 149.00000 418.400000
13923 8252 14284 1 149.00000 418.400000
13924 8253 15782 1 149.00000 418.400000
13924 8254 14386 1 149.00000 418.400000
13924 8255 16496 1 149.00000 418.400000
13925 8256 15479 1 149.00000 418.400000
13925 8257 14030 1 149.00000 418.400000
13925 8258 14355 1 149.00000 418.400000
11817 8259 15570 1 149.00000 418.400000
13926 8260 15377 1 149.00000 418.400000
13926 8261 15154 1 149.00000 418.400000
15886 8262 21630 1 149.00000 418.400000
13927 8263 14374 1 149.00000 418.400000
13927 8264 15533 1 149.00000 418.400000
15280 8265 16670 1 149.00000 418.400000
13928 8266 15928 1 149.00000 418.400000
13928 8267 16030 1 149.00000 418.400000
13928 8268 16514 1 149.00000 418.400000
13929 8269 14967 1 149.00000 418.400000
13929 8270 16053 1 149.00000 418.400000
13929 8271 14275 1 149.00000 418.400000
13930 8272 15738 1 149.00000 418.400000
13931 8273 16525 1 149.00000 418.400000
13932 8274 15995 1 149.00000 418.400000
13933 8275 22173 1 149.00000 418.400000
15927 8276 16684 1 149.00000 418.400000
13225 8277 14480 1 149.00000 418.400000
13934 8278 15241 1 149.00000 418.400000
13225 8279 14944 1 149.00000 418.400000
13935 8280 16203 1 149.00000 418.400000
13936 8281 16099 1 149.00000 418.400000
13936 8282 14277 1 149.00000 418.400000
14277 8283 14708 1 149.00000 418.400000
13937 8284 15711 1 149.00000 418.400000
13937 8285 14232 1 149.00000 418.400000
13937 8286 14961 1 149.00000 418.400000
13937 8287 14137 1 149.00000 418.400000
15037 8288 16698 1 149.00000 418.400000
16698 8289 17048 1 149.00000 418.400000
13938 8290 18448 1 149.00000 418.400000
13938 8291 16459 1 149.00000 418.400000
13939 8292 15417 1 149.00000 418.400000
13939 8293 14377 1 149.00000 418.400000
20754 8294 21963 1 149.00000 418.400000
13940 8295 16066 1 149.00000 418.400000
13940 8296 17552 1 149.00000 418.400000
13941 8297 14547 1 149.00000 418.400000
15801 8298 21639 1 149.00000 418.400000
13942 8299 14927 1 149.00000 418.400000
13942 8300 14570 1 149.00000 418.400000
13942 8301 15404 1 149.00000 418.400000
13943 8302 14816 1 149.00000 418.400000
13943 8303 16145 1 149.00000 418.400000
13943 8304 22233 1 149.00000 418.400000
13944 8305 15579 1 149.00000 418.400000
13944 8306 14593 1 149.00000 418.400000
13945 8307 14189 1 149.00000 418.400000
13945 8308 16209 1 149.00000 418.400000
13946 8309 15252 1 149.00000 418.400000
13946 8310 16367 1 149.00000 418.400000
13946 8311 16225 1 149.00000 418.400000
13947 8312 16499 1 149.00000 418.400000
13947 8313 15325 1 149.00000 418.400000
12977 8314 16223 1 149.00000 418.400000
14801 8315 15325 1 149.00000 418.400000
13948 8316 15709 1 149.00000 418.400000
13948 8317 15164 1 149.00000 418.400000
13948 8318 14062 1 149.00000 418.400000
13948 8319 16392 1 149.00000 418.400000
13949 8320 14427 1 149.00000 418.400000
13950 8321 16070 1 149.00000 418.400000
13950 8322 14328 1 149.00000 418.400000
13951 8323 14594 1 149.00000 418.400000
13951 8324 14562 1 149.00000 418.400000
13952 8325 15043 1 149.00000 418.400000
13952 8326 16239 1 149.00000 418.400000
13953 8327 14738 1 149.00000 418.400000
13953 8328 15724 1 149.00000 418.400000
13953 8329 15365 1 149.00000 418.400000
12134 8330 13953 1 149.00000 418.400000
17650 8331 21642 1 149.00000 418.400000
16372 8332 21642 1 149.00000 418.400000
13954 8333 16117 1 149.00000 418.400000
13954 8334 14234 1 149.00000 418.400000
13954 8335 16168 1 149.00000 418.400000
13955 8336 16496 1 149.00000 418.400000
13955 8337 15502 1 149.00000 418.400000
13955 8338 14054 1 149.00000 418.400000
13955 8339 14944 1 149.00000 418.400000
13956 8340 14530 1 149.00000 418.400000
13956 8341 15408 1 149.00000 418.400000
13957 8342 14840 1 149.00000 418.400000
13958 8343 14047 1 149.00000 418.400000
13958 8344 15729 1 149.00000 418.400000
13958 8345 15757 1 149.00000 418.400000
13959 8346 16173 1 149.00000 418.400000
13959 8347 16395 1 149.00000 418.400000
13960 8348 15358 1 149.00000 418.400000
13960 8349 15084 1 149.00000 418.400000
13960 8350 15370 1 149.00000 418.400000
13962 8351 15125 1 149.00000 418.400000
13962 8352 16171 1 149.00000 418.400000
13962 8353 14040 1 149.00000 418.400000
15379 8354 21645 1 149.00000 418.400000
13963 8355 14959 1 149.00000 418.400000
13963 8356 14500 1 149.00000 418.400000
13964 8357 14486 1 149.00000 418.400000
13964 8358 16157 1 149.00000 418.400000
13965 8359 15077 1 149.00000 418.400000
13965 8360 14299 1 149.00000 418.400000
13965 8361 22320 1 149.00000 418.400000
13966 8362 21867 1 149.00000 418.400000
13967 8363 17832 1 149.00000 418.400000
13967 8364 15526 1 149.00000 418.400000
13967 8365 16271 1 149.00000 418.400000
13968 8366 14345 1 149.00000 418.400000
13968 8367 13994 1 149.00000 418.400000
21648 8368 21774 1 149.00000 418.400000
13999 8369 21648 1 149.00000 418.400000
14373 8370 21648 1 149.00000 418.400000
16712 8371 21690 1 149.00000 418.400000
13969 8372 14806 1 149.00000 418.400000
16191 8373 21624 1 149.00000 418.400000
13970 8374 16094 1 149.00000 418.400000
13970 8375 21960 1 149.00000 418.400000
15938 8376 18558 1 149.00000 418.400000
13971 8377 14457 1 149.00000 418.400000
13972 8378 15964 1 149.00000 418.400000
13973 8379 15735 1 149.00000 418.400000
13973 8380 16268 1 149.00000 418.400000
14301 8381 21651 1 149.00000 418.400000
13974 8382 16482 1 149.00000 418.400000
11690 8383 13974 1 149.00000 418.400000
13975 8384 14849 1 149.00000 418.400000
13976 8385 14265 1 149.00000 418.400000
13977 8386 14094 1 149.00000 418.400000
13977 8387 15920 1 149.00000 418.400000
13977 8388 15156 1 149.00000 418.400000
13978 8389 21771 1 149.00000 418.400000
13979 8390 15067 1 149.00000 418.400000
13979 8391 15215 1 149.00000 418.400000
13980 8392 14512 1 149.00000 418.400000
13980 8393 15468 1 149.00000 418.400000
13981 8394 16470 1 149.00000 418.400000
13981 8395 14359 1 149.00000 418.400000
13981 8396 14920 1 149.00000 418.400000
13982 8397 14317 1 149.00000 418.400000
13982 8398 16303 1 149.00000 418.400000
13983 8399 15767 1 149.00000 418.400000
13983 8400 15116 1 149.00000 418.400000
13984 8401 16342 1 149.00000 418.400000
13984 8402 15973 1 149.00000 418.400000
13986 8403 16009 1 149.00000 418.400000
14646 8404 21654 1 149.00000 418.400000
18140 8405 21654 1 149.00000 418.400000
13987 8406 16481 1 149.00000 418.400000
13987 8407 14241 1 149.00000 418.400000
13988 8408 15297 1 149.00000 418.400000
13988 8409 15108 1 149.00000 418.400000
13988 8410 14525 1 149.00000 418.400000
13989 8411 15795 1 149.00000 418.400000
11537 8412 18294 1 149.00000 418.400000
13990 8413 21732 1 149.00000 418.400000
13990 8414 14055 1 149.00000 418.400000
13991 8415 15014 1 149.00000 418.400000
13991 8416 15591 1 149.00000 418.400000
13991 8417 15827 1 149.00000 418.400000
13992 8418 15247 1 149.00000 418.400000
13992 8419 14145 1 149.00000 418.400000
13992 8420 16172 1 149.00000 418.400000
12798 8421 15310 1 149.00000 418.400000
13993 8422 14612 1 149.00000 418.400000
13994 8423 15674 1 149.00000 418.400000
13994 8424 14324 1 149.00000 418.400000
13994 8425 15305 1 149.00000 418.400000
14737 8426 16269 1 149.00000 418.400000
13995 8427 16269 1 149.00000 418.400000
14532 8428 16269 1 149.00000 418.400000
15965 8429 16229 1 149.00000 418.400000
13996 8430 14720 1 149.00000 418.400000
13996 8431 16229 1 149.00000 418.400000
13997 8432 16226 1 149.00000 418.400000
13997 8433 15135 1 149.00000 418.400000
13998 8434 16175 1 149.00000 418.400000
13998 8435 15168 1 149.00000 418.400000
15311 8436 16175 1 149.00000 418.400000
14911 8437 15546 1 149.00000 418.400000
13999 8438 17510 1 149.00000 418.400000
13999 8439 15546 1 149.00000 418.400000
14000 8440 15696 1 149.00000 418.400000
14000 8441 14488 1 149.00000 418.400000
14001 8442 15261 1 149.00000 418.400000
14002 8443 14755 1 149.00000 418.400000
14003 8444 16152 1 149.00000 418.400000
14004 8445 14036 1 149.00000 418.400000
14004 8446 16068 1 149.00000 418.400000
14004 8447 14828 1 149.00000 418.400000
14005 8448 15129 1 149.00000 418.400000
14005 8449 15708 1 149.00000 418.400000
15708 8450 15828 1 149.00000 418.400000
14006 8451 16071 1 149.00000 418.400000
14006 8452 14456 1 149.00000 418.400000
14006 8453 15283 1 149.00000 418.400000
16071 8454 16123 1 149.00000 418.400000
14007 8455 14968 1 149.00000 418.400000
11598 8456 15454 1 149.00000 418.400000
14009 8457 15621 1 149.00000 418.400000
14009 8458 15131 1 149.00000 418.400000
16740 8459 22152 1 149.00000 418.400000
14010 8460 16277 1 149.00000 418.400000
14365 8461 16277 1 149.00000 418.400000
14011 8462 15217 1 149.00000 418.400000
14011 8463 14635 1 149.00000 418.400000
14011 8464 15160 1 149.00000 418.400000
14012 8465 14658 1 149.00000 418.400000
14012 8466 15492 1 149.00000 418.400000
14013 8467 16443 1 149.00000 418.400000
14014 8468 15135 1 149.00000 418.400000
13626 8469 14014 1 149.00000 418.400000
14014 8470 16046 1 149.00000 418.400000
14014 8471 15372 1 149.00000 418.400000
14015 8472 15966 1 149.00000 418.400000
16184 8473 21657 1 149.00000 418.400000
15142 8474 21657 1 149.00000 418.400000
14017 8475 14956 1 149.00000 418.400000
14018 8476 14106 1 149.00000 418.400000
14018 8477 15861 1 149.00000 418.400000
14019 8478 14997 1 149.00000 418.400000
14019 8479 16476 1 149.00000 418.400000
14019 8480 16457 1 149.00000 418.400000
14020 8481 14496 1 149.00000 418.400000
14020 8482 15342 1 149.00000 418.400000
14021 8483 21807 1 149.00000 418.400000
14022 8484 14104 1 149.00000 418.400000
14022 8485 14848 1 149.00000 418.400000
14023 8486 16049 1 149.00000 418.400000
14023 8487 14828 1 149.00000 418.400000
14023 8488 16325 1 149.00000 418.400000
14024 8489 14871 1 149.00000 418.400000
14024 8490 15996 1 149.00000 418.400000
14024 8491 14764 1 149.00000 418.400000
15871 8492 21660 1 149.00000 418.400000
14025 8493 21999 1 149.00000 418.400000
14025 8494 14908 1 149.00000 418.400000
14026 8495 16053 1 149.00000 418.400000
14026 8496 14748 1 149.00000 418.400000
15187 8497 18126 1 149.00000 418.400000
14027 8498 22080 1 149.00000 418.400000
14364 8499 15187 1 149.00000 418.400000
14027 8500 15187 1 149.00000 418.400000
14385 8501 16754 1 149.00000 418.400000
14028 8502 14671 1 149.00000 418.400000
14028 8503 14367 1 149.00000 418.400000
14028 8504 14123 1 149.00000 418.400000
12187 8505 15414 1 149.00000 418.400000
12187 8506 14044 1 149.00000 418.400000
14030 8507 15204 1 149.00000 418.400000
14031 8508 15444 1 149.00000 418.400000
14031 8509 15905 1 149.00000 418.400000
14031 8510 15375 1 149.00000 418.400000
21666 8511 22424 1 149.00000 418.400000
15568 8512 21666 1 149.00000 418.400000
14032 8513 15106 1 149.00000 418.400000
14033 8514 15628 1 149.00000 418.400000
14033 8515 14839 1 149.00000 418.400000
14033 8516 16392 1 149.00000 418.400000
14034 8517 16305 1 149.00000 418.400000
14035 8518 16511 1 149.00000 418.400000
14036 8519 15156 1 149.00000 418.400000
21669 8520 22404 1 149.00000 418.400000
14037 8521 14622 1 149.00000 418.400000
14037 8522 15970 1 149.00000 418.400000
14038 8523 14849 1 149.00000 418.400000
14038 8524 16506 1 149.00000 418.400000
11404 8525 14405 1 149.00000 418.400000
11404 8526 14678 1 149.00000 418.400000
11404 8527 14273 1 149.00000 418.400000
14040 8528 14106 1 149.00000 418.400000
14040 8529 14692 1 149.00000 418.400000
14041 8530 14305 1 149.00000 418.400000
14041 8531 15778 1 149.00000 418.400000
14042 8532 16236 1 149.00000 418.400000
14042 8533 15386 1 149.00000 418.400000
14042 8534 16321 1 149.00000 418.400000
14043 8535 15899 1 149.00000 418.400000
14043 8536 15266 1 149.00000 418.400000
14043 8537 16202 1 149.00000 418.400000
14044 8538 16131 1 149.00000 418.400000
14044 8539 14372 1 149.00000 418.400000
14045 8540 16081 1 149.00000 418.400000
14045 8541 15522 1 149.00000 418.400000
14045 8542 16400 1 149.00000 418.400000
14046 8543 14810 1 149.00000 418.400000
14046 8544 15912 1 149.00000 418.400000
14046 8545 14157 1 149.00000 418.400000
14047 8546 15273 1 149.00000 418.400000
14048 8547 15098 1 149.00000 418.400000
14048 8548 15512 1 149.00000 418.400000
14048 8549 14274 1 149.00000 418.400000
15853 8550 16796 1 149.00000 418.400000
14049 8551 14798 1 149.00000 418.400000
14049 8552 15123 1 149.00000 418.400000
14049 8553 14689 1 149.00000 418.400000
14051 8554 16428 1 149.00000 418.400000
14051 8555 14081 1 149.00000 418.400000
14052 8556 16299 1 149.00000 418.400000
14052 8557 16388 1 149.00000 418.400000
14053 8558 14959 1 149.00000 418.400000
14053 8559 16283 1 149.00000 418.400000
14054 8560 15908 1 149.00000 418.400000
14054 8561 16023 1 149.00000 418.400000
15490 8562 16810 1 149.00000 418.400000
14055 8563 16301 1 149.00000 418.400000
14056 8564 16303 1 149.00000 418.400000
14056 8565 15298 1 149.00000 418.400000
14057 8566 16028 1 149.00000 418.400000
14058 8567 15154 1 149.00000 418.400000
14059 8568 14605 1 149.00000 418.400000
14059 8569 22182 1 149.00000 418.400000
14060 8570 15213 1 149.00000 418.400000
14060 8571 16491 1 149.00000 418.400000
14060 8572 15730 1 149.00000 418.400000
14436 8573 21672 1 149.00000 418.400000
15977 8574 21672 1 149.00000 418.400000
14062 8575 15235 1 149.00000 418.400000
14063 8576 16296 1 149.00000 418.400000
14063 8577 15772 1 149.00000 418.400000
14063 8578 16330 1 149.00000 418.400000
14063 8579 14139 1 149.00000 418.400000
14064 8580 15671 1 149.00000 418.400000
11816 8581 14064 1 149.00000 418.400000
14065 8582 15244 1 149.00000 418.400000
14066 8583 15977 1 149.00000 418.400000
14066 8584 15513 1 149.00000 418.400000
11628 8585 14066 1 149.00000 418.400000
14067 8586 15020 1 149.00000 418.400000
14067 8587 15217 1 149.00000 418.400000
14068 8588 16039 1 149.00000 418.400000
14068 8589 15498 1 149.00000 418.400000
14069 8590 15582 1 149.00000 418.400000
14069 8591 15082 1 149.00000 418.400000
14069 8592 15428 1 149.00000 418.400000
12866 8593 14603 1 149.00000 418.400000
14070 8594 14108 1 149.00000 418.400000
14070 8595 16323 1 149.00000 418.400000
14071 8596 15637 1 149.00000 418.400000
14071 8597 15713 1 149.00000 418.400000
14071 8598 16036 1 149.00000 418.400000
14072 8599 15029 1 149.00000 418.400000
14072 8600 15488 1 149.00000 418.400000
14072 8601 14417 1 149.00000 418.400000
14073 8602 14745 1 149.00000 418.400000
14073 8603 16265 1 149.00000 418.400000
14075 8604 15100 1 149.00000 418.400000
14076 8605 16310 1 149.00000 418.400000
14076 8606 16107 1 149.00000 418.400000
14076 8607 16398 1 149.00000 418.400000
14076 8608 15805 1 149.00000 418.400000
13919 8609 14077 1 149.00000 418.400000
14078 8610 16100 1 149.00000 418.400000
14078 8611 15837 1 149.00000 418.400000
11858 8612 16133 1 149.00000 418.400000
14079 8613 16093 1 149.00000 418.400000
14079 8614 15837 1 149.00000 418.400000
14080 8615 15089 1 149.00000 418.400000
14080 8616 14544 1 149.00000 418.400000
16824 8617 17776 1 149.00000 418.400000
14705 8618 16824 1 149.00000 418.400000
14081 8619 22284 1 149.00000 418.400000
14081 8620 15007 1 149.00000 418.400000
16838 8621 22068 1 149.00000 418.400000
11524 8622 14858 1 149.00000 418.400000
14082 8623 14468 1 149.00000 418.400000
14082 8624 15552 1 149.00000 418.400000
14083 8625 15868 1 149.00000 418.400000
14084 8626 15041 1 149.00000 418.400000
14084 8627 16461 1 149.00000 418.400000
14084 8628 14106 1 149.00000 418.400000
14084 8629 15125 1 149.00000 418.400000
14085 8630 15815 1 149.00000 418.400000
14086 8631 14227 1 149.00000 418.400000
14086 8632 14552 1 149.00000 418.400000
14086 8633 15596 1 149.00000 418.400000
18084 8634 21675 1 149.00000 418.400000
17132 8635 21675 1 149.00000 418.400000
15517 8636 21675 1 149.00000 418.400000
14869 8637 14945 1 149.00000 418.400000
14685 8638 14945 1 149.00000 418.400000
14087 8639 14945 1 149.00000 418.400000
14088 8640 15954 1 149.00000 418.400000
14089 8641 15437 1 149.00000 418.400000
14089 8642 14191 1 149.00000 418.400000
14090 8643 15242 1 149.00000 418.400000
14090 8644 15465 1 149.00000 418.400000
14091 8645 14977 1 149.00000 418.400000
14091 8646 14988 1 149.00000 418.400000
16064 8647 21678 1 149.00000 418.400000
16091 8648 21678 1 149.00000 418.400000
14092 8649 15087 1 149.00000 418.400000
14092 8650 15668 1 149.00000 418.400000
14093 8651 15584 1 149.00000 418.400000
14094 8652 14498 1 149.00000 418.400000
14095 8653 15849 1 149.00000 418.400000
14095 8654 15117 1 149.00000 418.400000
14096 8655 15071 1 149.00000 418.400000
14096 8656 16079 1 149.00000 418.400000
14097 8657 14894 1 149.00000 418.400000
14097 8658 21792 1 149.00000 418.400000
14098 8659 15198 1 149.00000 418.400000
14099 8660 14497 1 149.00000 418.400000
14099 8661 15750 1 149.00000 418.400000
14100 8662 15014 1 149.00000 418.400000
14100 8663 16276 1 149.00000 418.400000
12999 8664 14100 1 149.00000 418.400000
14100 8665 14582 1 149.00000 418.400000
14190 8666 16254 1 149.00000 418.400000
14190 8667 15004 1 149.00000 418.400000
14101 8668 15332 1 149.00000 418.400000
14102 8669 15278 1 149.00000 418.400000
14103 8670 16359 1 149.00000 418.400000
14103 8671 16256 1 149.00000 418.400000
16460 8672 21681 1 149.00000 418.400000
14105 8673 14955 1 149.00000 418.400000
14105 8674 14171 1 149.00000 418.400000
11395 8675 14107 1 149.00000 418.400000
14107 8676 16234 1 149.00000 418.400000
14107 8677 15413 1 149.00000 418.400000
14108 8678 14735 1 149.00000 418.400000
15148 8679 15732 1 149.00000 418.400000
14109 8680 15732 1 149.00000 418.400000
14110 8681 15102 1 149.00000 418.400000
14110 8682 15201 1 149.00000 418.400000
14110 8683 15810 1 149.00000 418.400000
14110 8684 14604 1 149.00000 418.400000
14111 8685 15009 1 149.00000 418.400000
14112 8686 14716 1 149.00000 418.400000
14112 8687 16267 1 149.00000 418.400000
14113 8688 16486 1 149.00000 418.400000
14113 8689 15651 1 149.00000 418.400000
14114 8690 15920 1 149.00000 418.400000
14115 8691 16107 1 149.00000 418.400000
14115 8692 14623 1 149.00000 418.400000
14115 8693 16310 1 149.00000 418.400000
14115 8694 15494 1 149.00000 418.400000
14116 8695 14441 1 149.00000 418.400000
14117 8696 14829 1 149.00000 418.400000
14118 8697 16391 1 149.00000 418.400000
14119 8698 15929 1 149.00000 418.400000
14119 8699 14339 1 149.00000 418.400000
14120 8700 15815 1 149.00000 418.400000
14120 8701 14436 1 149.00000 418.400000
14121 8702 14733 1 149.00000 418.400000
14121 8703 14638 1 149.00000 418.400000
14122 8704 15461 1 149.00000 418.400000
14122 8705 15426 1 149.00000 418.400000
14123 8706 15772 1 149.00000 418.400000
14125 8707 15603 1 149.00000 418.400000
14125 8708 15639 1 149.00000 418.400000
14125 8709 15796 1 149.00000 418.400000
14126 8710 15540 1 149.00000 418.400000
14126 8711 14146 1 149.00000 418.400000
14127 8712 16078 1 149.00000 418.400000
14128 8713 15697 1 149.00000 418.400000
14128 8714 15165 1 149.00000 418.400000
14129 8715 16466 1 149.00000 418.400000
14130 8716 15789 1 149.00000 418.400000
14130 8717 15059 1 149.00000 418.400000
14130 8718 15541 1 149.00000 418.400000
14131 8719 15121 1 149.00000 418.400000
14131 8720 16228 1 149.00000 418.400000
14132 8721 14362 1 149.00000 418.400000
14132 8722 15181 1 149.00000 418.400000
14133 8723 15720 1 149.00000 418.400000
14133 8724 14969 1 149.00000 418.400000
14133 8725 17454 1 149.00000 418.400000
14134 8726 14562 1 149.00000 418.400000
14134 8727 15074 1 149.00000 418.400000
14135 8728 15606 1 149.00000 418.400000
11450 8729 14135 1 149.00000 418.400000
14135 8730 15502 1 149.00000 418.400000
14136 8731 16142 1 149.00000 418.400000
14136 8732 16040 1 149.00000 418.400000
14137 8733 14813 1 149.00000 418.400000
14138 8734 16245 1 149.00000 418.400000
13342 8735 16382 1 149.00000 418.400000
14139 8736 15693 1 149.00000 418.400000
14140 8737 14337 1 149.00000 418.400000
14141 8738 16327 1 149.00000 418.400000
14141 8739 16394 1 149.00000 418.400000
14141 8740 15879 1 149.00000 418.400000
14142 8741 15090 1 149.00000 418.400000
14143 8742 15550 1 149.00000 418.400000
14143 8743 15339 1 149.00000 418.400000
14144 8744 14581 1 149.00000 418.400000
14144 8745 16042 1 149.00000 418.400000
14145 8746 15616 1 149.00000 418.400000
14147 8747 14162 1 149.00000 418.400000
14147 8748 15024 1 149.00000 418.400000
14147 8749 15396 1 149.00000 418.400000
14148 8750 15631 1 149.00000 418.400000
14149 8751 15024 1 149.00000 418.400000
14150 8752 14153 1 149.00000 418.400000
14150 8753 14347 1 149.00000 418.400000
14151 8754 15221 1 149.00000 418.400000
14151 8755 14235 1 149.00000 418.400000
14151 8756 16025 1 149.00000 418.400000
14153 8757 15799 1 149.00000 418.400000
14154 8758 15278 1 149.00000 418.400000
14154 8759 14972 1 149.00000 418.400000
21684 8760 22281 1 149.00000 418.400000
15724 8761 21684 1 149.00000 418.400000
14156 8762 15535 1 149.00000 418.400000
14157 8763 15080 1 149.00000 418.400000
14158 8764 14163 1 149.00000 418.400000
14158 8765 14371 1 149.00000 418.400000
14159 8766 14573 1 149.00000 418.400000
14159 8767 15835 1 149.00000 418.400000
14160 8768 14645 1 149.00000 418.400000
14160 8769 15754 1 149.00000 418.400000
14161 8770 15252 1 149.00000 418.400000
14161 8771 15452 1 149.00000 418.400000
14163 8772 16244 1 149.00000 418.400000
14164 8773 16054 1 149.00000 418.400000
14164 8774 14548 1 149.00000 418.400000
14165 8775 15359 1 149.00000 418.400000
14165 8776 15086 1 149.00000 418.400000
14385 8777 21687 1 149.00000 418.400000
14166 8778 15216 1 149.00000 418.400000
14166 8779 14437 1 149.00000 418.400000
14167 8780 15760 1 149.00000 418.400000
14167 8781 15502 1 149.00000 418.400000
14167 8782 14914 1 149.00000 418.400000
14168 8783 16436 1 149.00000 418.400000
14168 8784 14575 1 149.00000 418.400000
14169 8785 17846 1 149.00000 418.400000
14170 8786 15104 1 149.00000 418.400000
14170 8787 15612 1 149.00000 418.400000
14171 8788 14884 1 149.00000 418.400000
14171 8789 15510 1 149.00000 418.400000
14172 8790 14778 1 149.00000 418.400000
14172 8791 15238 1 149.00000 418.400000
14172 8792 14619 1 149.00000 418.400000
14173 8793 14811 1 149.00000 418.400000
14173 8794 15587 1 149.00000 418.400000
14174 8795 14770 1 149.00000 418.400000
14175 8796 14421 1 149.00000 418.400000
14175 8797 14490 1 149.00000 418.400000
14176 8798 14843 1 149.00000 418.400000
14176 8799 22179 1 149.00000 418.400000
14177 8800 15572 1 149.00000 418.400000
13681 8801 14177 1 149.00000 418.400000
14177 8802 14910 1 149.00000 418.400000
14178 8803 16005 1 149.00000 418.400000
14178 8804 14181 1 149.00000 418.400000
14179 8805 14740 1 149.00000 418.400000
14179 8806 14298 1 149.00000 418.400000
14179 8807 15900 1 149.00000 418.400000
14180 8808 15191 1 149.00000 418.400000
14181 8809 16145 1 149.00000 418.400000
14181 8810 14535 1 149.00000 418.400000
14181 8811 15563 1 149.00000 418.400000
14182 8812 16136 1 149.00000 418.400000
14921 8813 21690 1 149.00000 418.400000
14183 8814 14929 1 149.00000 418.400000
12701 8815 22197 1 149.00000 418.400000
14184 8816 14786 1 149.00000 418.400000
14185 8817 16149 1 149.00000 418.400000
14186 8818 15890 1 149.00000 418.400000
14186 8819 16304 1 149.00000 418.400000
14187 8820 16180 1 149.00000 418.400000
15876 8821 16880 1 149.00000 418.400000
16894 8822 22134 1 149.00000 418.400000
14188 8823 14589 1 149.00000 418.400000
14188 8824 15961 1 149.00000 418.400000
14189 8825 15192 1 149.00000 418.400000
15702 8826 16254 1 149.00000 418.400000
14193 8827 14282 1 149.00000 418.400000
14193 8828 14820 1 149.00000 418.400000
14193 8829 21657 1 149.00000 418.400000
14194 8830 15729 1 149.00000 418.400000
14195 8831 15865 1 149.00000 418.400000
14195 8832 15584 1 149.00000 418.400000
14195 8833 14966 1 149.00000 418.400000
14195 8834 14673 1 149.00000 418.400000
14196 8835 14427 1 149.00000 418.400000
14197 8836 15446 1 149.00000 418.400000
14198 8837 14867 1 149.00000 418.400000
14199 8838 14983 1 149.00000 418.400000
14199 8839 15305 1 149.00000 418.400000
14199 8840 15837 1 149.00000 418.400000
14200 8841 22454 1 149.00000 418.400000
14200 8842 14548 1 149.00000 418.400000
14201 8843 16029 1 149.00000 418.400000
14201 8844 15189 1 149.00000 418.400000
14202 8845 16214 1 149.00000 418.400000
14202 8846 16196 1 149.00000 418.400000
14203 8847 15310 1 149.00000 418.400000
13093 8848 14780 1 149.00000 418.400000
14204 8849 15276 1 149.00000 418.400000
14205 8850 16445 1 149.00000 418.400000
16936 8851 22110 1 149.00000 418.400000
14206 8852 14876 1 149.00000 418.400000
14206 8853 15104 1 149.00000 418.400000
14206 8854 16202 1 149.00000 418.400000
12925 8855 16408 1 149.00000 418.400000
14207 8856 14630 1 149.00000 418.400000
14207 8857 14444 1 149.00000 418.400000
14208 8858 15765 1 149.00000 418.400000
14208 8859 15382 1 149.00000 418.400000
14208 8860 16207 1 149.00000 418.400000
14209 8861 16101 1 149.00000 418.400000
14209 8862 14614 1 149.00000 418.400000
14209 8863 15090 1 149.00000 418.400000
16170 8864 21696 1 149.00000 418.400000
21696 8865 22374 1 149.00000 418.400000
14849 8866 16964 1 149.00000 418.400000
16263 8867 16964 1 149.00000 418.400000
14210 8868 14443 1 149.00000 418.400000
11569 8869 15768 1 149.00000 418.400000
14211 8870 16160 1 149.00000 418.400000
14211 8871 14355 1 149.00000 418.400000
14213 8872 15086 1 149.00000 418.400000
14214 8873 14888 1 149.00000 418.400000
14214 8874 22059 1 149.00000 418.400000
14214 8875 21861 1 149.00000 418.400000
14850 8876 21699 1 149.00000 418.400000
15066 8877 21702 1 149.00000 418.400000
14215 8878 14596 1 149.00000 418.400000
14215 8879 18154 1 149.00000 418.400000
14216 8880 15125 1 149.00000 418.400000
14217 8881 15057 1 149.00000 418.400000
14217 8882 16108 1 149.00000 418.400000
14218 8883 15316 1 149.00000 418.400000
14219 8884 15682 1 149.00000 418.400000
14219 8885 15548 1 149.00000 418.400000
14220 8886 14521 1 149.00000 418.400000
14220 8887 15741 1 149.00000 418.400000
14222 8888 15974 1 149.00000 418.400000
14222 8889 15955 1 149.00000 418.400000
14222 8890 14435 1 149.00000 418.400000
14223 8891 14448 1 149.00000 418.400000
14223 8892 15446 1 149.00000 418.400000
13381 8893 14224 1 149.00000 418.400000
12148 8894 15935 1 149.00000 418.400000
14225 8895 16261 1 149.00000 418.400000
14226 8896 14818 1 149.00000 418.400000
14226 8897 14829 1 149.00000 418.400000
14226 8898 15053 1 149.00000 418.400000
14227 8899 14592 1 149.00000 418.400000
14228 8900 16260 1 149.00000 418.400000
14228 8901 15723 1 149.00000 418.400000
14229 8902 15970 1 149.00000 418.400000
14229 8903 16074 1 149.00000 418.400000
14230 8904 16326 1 149.00000 418.400000
14230 8905 16470 1 149.00000 418.400000
14230 8906 15061 1 149.00000 418.400000
14231 8907 15933 1 149.00000 418.400000
14986 8908 21705 1 149.00000 418.400000
14233 8909 14895 1 149.00000 418.400000
14233 8910 14630 1 149.00000 418.400000
14234 8911 15774 1 149.00000 418.400000
14234 8912 14729 1 149.00000 418.400000
14307 8913 21708 1 149.00000 418.400000
14235 8914 14625 1 149.00000 418.400000
14235 8915 14668 1 149.00000 418.400000
13214 8916 16992 1 149.00000 418.400000
14236 8917 15456 1 149.00000 418.400000
14237 8918 14877 1 149.00000 418.400000
14237 8919 14728 1 149.00000 418.400000
14237 8920 15228 1 149.00000 418.400000
14238 8921 16037 1 149.00000 418.400000
14238 8922 16075 1 149.00000 418.400000
21711 8923 22353 1 149.00000 418.400000
14240 8924 15136 1 149.00000 418.400000
14240 8925 16431 1 149.00000 418.400000
14240 8926 15047 1 149.00000 418.400000
14241 8927 16319 1 149.00000 418.400000
17006 8928 21909 1 149.00000 418.400000
14242 8929 16253 1 149.00000 418.400000
14243 8930 16451 1 149.00000 418.400000
14243 8931 16294 1 149.00000 418.400000
14243 8932 15713 1 149.00000 418.400000
14243 8933 15964 1 149.00000 418.400000
14244 8934 16127 1 149.00000 418.400000
14244 8935 15414 1 149.00000 418.400000
14245 8936 14947 1 149.00000 418.400000
14246 8937 14943 1 149.00000 418.400000
14246 8938 17972 1 149.00000 418.400000
13826 8939 14247 1 149.00000 418.400000
14248 8940 16244 1 149.00000 418.400000
14249 8941 14290 1 149.00000 418.400000
17678 8942 21714 1 149.00000 418.400000
14250 8943 15995 1 149.00000 418.400000
14250 8944 14798 1 149.00000 418.400000
14250 8945 16199 1 149.00000 418.400000
14250 8946 16426 1 149.00000 418.400000
14251 8947 16087 1 149.00000 418.400000
14251 8948 14472 1 149.00000 418.400000
14252 8949 16414 1 149.00000 418.400000
14252 8950 15209 1 149.00000 418.400000
14252 8951 15386 1 149.00000 418.400000
14252 8952 16472 1 149.00000 418.400000
14253 8953 15391 1 149.00000 418.400000
14254 8954 22284 1 149.00000 418.400000
14254 8955 15000 1 149.00000 418.400000
14254 8956 14737 1 149.00000 418.400000
14255 8957 14546 1 149.00000 418.400000
14255 8958 16517 1 149.00000 418.400000
14255 8959 15375 1 149.00000 418.400000
14257 8960 14260 1 149.00000 418.400000
21717 8961 22176 1 149.00000 418.400000
15254 8962 17020 1 149.00000 418.400000
14258 8963 16508 1 149.00000 418.400000
14259 8964 15380 1 149.00000 418.400000
14259 8965 16436 1 149.00000 418.400000
14259 8966 16227 1 149.00000 418.400000
14260 8967 15771 1 149.00000 418.400000
14261 8968 15591 1 149.00000 418.400000
14261 8969 15554 1 149.00000 418.400000
12164 8970 16101 1 149.00000 418.400000
14263 8971 16503 1 149.00000 418.400000
14263 8972 15322 1 149.00000 418.400000
14263 8973 14611 1 149.00000 418.400000
14696 8974 17034 1 149.00000 418.400000
16146 8975 21720 1 149.00000 418.400000
12087 8976 14464 1 149.00000 418.400000
14264 8977 15872 1 149.00000 418.400000
14264 8978 14930 1 149.00000 418.400000
14265 8979 16295 1 149.00000 418.400000
14265 8980 14855 1 149.00000 418.400000
14265 8981 15258 1 149.00000 418.400000
14266 8982 15611 1 149.00000 418.400000
14266 8983 14979 1 149.00000 418.400000
14267 8984 16256 1 149.00000 418.400000
14267 8985 21945 1 149.00000 418.400000
11696 8986 15164 1 149.00000 418.400000
14269 8987 16506 1 149.00000 418.400000
14269 8988 16008 1 149.00000 418.400000
14269 8989 14456 1 149.00000 418.400000
14270 8990 16046 1 149.00000 418.400000
14272 8991 15516 1 149.00000 418.400000
14272 8992 16051 1 149.00000 418.400000
14273 8993 15883 1 149.00000 418.400000
14273 8994 16351 1 149.00000 418.400000
14274 8995 15153 1 149.00000 418.400000
14276 8996 16389 1 149.00000 418.400000
14276 8997 14636 1 149.00000 418.400000
13936 8998 15676 1 149.00000 418.400000
14278 8999 15030 1 149.00000 418.400000
14278 9000 14608 1 149.00000 418.400000
16409 9001 18774 1 149.00000 418.400000
14279 9002 16211 1 149.00000 418.400000
14279 9003 15559 1 149.00000 418.400000
14279 9004 15704 1 149.00000 418.400000
14280 9005 15489 1 149.00000 418.400000
14281 9006 14609 1 149.00000 418.400000
14281 9007 16471 1 149.00000 418.400000
14281 9008 16293 1 149.00000 418.400000
14282 9009 16184 1 149.00000 418.400000
11862 9010 21723 1 149.00000 418.400000
21726 9011 21963 1 149.00000 418.400000
14414 9012 21726 1 149.00000 418.400000
14283 9013 15843 1 149.00000 418.400000
14283 9014 15365 1 149.00000 418.400000
14284 9015 14585 1 149.00000 418.400000
14585 9016 15162 1 149.00000 418.400000
14284 9017 16315 1 149.00000 418.400000
14285 9018 15665 1 149.00000 418.400000
14286 9019 14344 1 149.00000 418.400000
12033 9020 14287 1 149.00000 418.400000
14287 9021 15991 1 149.00000 418.400000
14288 9022 15211 1 149.00000 418.400000
14288 9023 15893 1 149.00000 418.400000
15058 9024 21729 1 149.00000 418.400000
21729 9025 22230 1 149.00000 418.400000
14289 9026 15889 1 149.00000 418.400000
14289 9027 15595 1 149.00000 418.400000
14289 9028 15431 1 149.00000 418.400000
14290 9029 14903 1 149.00000 418.400000
14290 9030 14668 1 149.00000 418.400000
14291 9031 15342 1 149.00000 418.400000
14291 9032 17412 1 149.00000 418.400000
13502 9033 14291 1 149.00000 418.400000
14292 9034 14615 1 149.00000 418.400000
15084 9035 17048 1 149.00000 418.400000
14294 9036 16027 1 149.00000 418.400000
14294 9037 14684 1 149.00000 418.400000
14295 9038 15537 1 149.00000 418.400000
14295 9039 14991 1 149.00000 418.400000
14296 9040 15307 1 149.00000 418.400000
15140 9041 15785 1 149.00000 418.400000
14296 9042 15785 1 149.00000 418.400000
14296 9043 15446 1 149.00000 418.400000
14297 9044 14724 1 149.00000 418.400000
14298 9045 15649 1 149.00000 418.400000
14299 9046 15018 1 149.00000 418.400000
14299 9047 15780 1 149.00000 418.400000
18098 9048 21732 1 149.00000 418.400000
14300 9049 15185 1 149.00000 418.400000
14300 9050 16102 1 149.00000 418.400000
14301 9051 14837 1 149.00000 418.400000
14301 9052 16439 1 149.00000 418.400000
14302 9053 15207 1 149.00000 418.400000
14303 9054 21774 1 149.00000 418.400000
14303 9055 16034 1 149.00000 418.400000
12596 9056 14305 1 149.00000 418.400000
14306 9057 14549 1 149.00000 418.400000
14306 9058 16216 1 149.00000 418.400000
14306 9059 14686 1 149.00000 418.400000
14307 9060 14328 1 149.00000 418.400000
13419 9061 14989 1 149.00000 418.400000
12440 9062 14308 1 149.00000 418.400000
14308 9063 14412 1 149.00000 418.400000
14308 9064 16132 1 149.00000 418.400000
14309 9065 14748 1 149.00000 418.400000
14310 9066 15855 1 149.00000 418.400000
14956 9067 17062 1 149.00000 418.400000
14311 9068 15237 1 149.00000 418.400000
14795 9069 15237 1 149.00000 418.400000
14312 9070 16425 1 149.00000 418.400000
14312 9071 14952 1 149.00000 418.400000
14313 9072 15354 1 149.00000 418.400000
12657 9073 15171 1 149.00000 418.400000
14314 9074 15806 1 149.00000 418.400000
14314 9075 14856 1 149.00000 418.400000
14315 9076 15309 1 149.00000 418.400000
14315 9077 15418 1 149.00000 418.400000
14315 9078 16480 1 149.00000 418.400000
14315 9079 16089 1 149.00000 418.400000
14316 9080 16524 1 149.00000 418.400000
14316 9081 14323 1 149.00000 418.400000
14826 9082 15746 1 149.00000 418.400000
14316 9083 15746 1 149.00000 418.400000
14317 9084 14358 1 149.00000 418.400000
13149 9085 14443 1 149.00000 418.400000
14319 9086 15101 1 149.00000 418.400000
14320 9087 15571 1 149.00000 418.400000
16377 9088 21735 1 149.00000 418.400000
15253 9089 21735 1 149.00000 418.400000
17188 9090 21735 1 149.00000 418.400000
14321 9091 21861 1 149.00000 418.400000
14321 9092 21921 1 149.00000 418.400000
14321 9093 14322 1 149.00000 418.400000
14322 9094 14520 1 149.00000 418.400000
14322 9095 16525 1 149.00000 418.400000
14323 9096 16202 1 149.00000 418.400000
14323 9097 14954 1 149.00000 418.400000
11971 9098 17076 1 149.00000 418.400000
14324 9099 16103 1 149.00000 418.400000
14324 9100 16273 1 149.00000 418.400000
14325 9101 16022 1 149.00000 418.400000
14325 9102 14528 1 149.00000 418.400000
15788 9103 21738 1 149.00000 418.400000
15766 9104 21738 1 149.00000 418.400000
14326 9105 15122 1 149.00000 418.400000
14326 9106 16138 1 149.00000 418.400000
14326 9107 14335 1 149.00000 418.400000
14327 9108 16012 1 149.00000 418.400000
14328 9109 15877 1 149.00000 418.400000
14329 9110 14356 1 149.00000 418.400000
16007 9111 21567 1 149.00000 418.400000
14329 9112 15576 1 149.00000 418.400000
14330 9113 15849 1 149.00000 418.400000
14331 9114 15030 1 149.00000 418.400000
14331 9115 14899 1 149.00000 418.400000
14331 9116 15335 1 149.00000 418.400000
14332 9117 16137 1 149.00000 418.400000
14332 9118 15275 1 149.00000 418.400000
14809 9119 15275 1 149.00000 418.400000
14332 9120 15982 1 149.00000 418.400000
14333 9121 15865 1 149.00000 418.400000
14333 9122 15800 1 149.00000 418.400000
14334 9123 16358 1 149.00000 418.400000
14334 9124 15326 1 149.00000 418.400000
14334 9125 16129 1 149.00000 418.400000
15758 9126 16129 1 149.00000 418.400000
14335 9127 16425 1 149.00000 418.400000
12802 9128 14335 1 149.00000 418.400000
14337 9129 14756 1 149.00000 418.400000
13428 9130 14338 1 149.00000 418.400000
14338 9131 14659 1 149.00000 418.400000
14338 9132 15200 1 149.00000 418.400000
14338 9133 16473 1 149.00000 418.400000
12239 9134 16009 1 149.00000 418.400000
14341 9135 16224 1 149.00000 418.400000
14341 9136 15331 1 149.00000 418.400000
14342 9137 14630 1 149.00000 418.400000
14342 9138 14449 1 149.00000 418.400000
16134 9139 21741 1 149.00000 418.400000
14639 9140 21741 1 149.00000 418.400000
14343 9141 16114 1 149.00000 418.400000
14344 9142 14823 1 149.00000 418.400000
21744 9143 21930 1 149.00000 418.400000
14590 9144 21744 1 149.00000 418.400000
14345 9145 15129 1 149.00000 418.400000
15608 9146 16273 1 149.00000 418.400000
14840 9147 15608 1 149.00000 418.400000
14347 9148 15608 1 149.00000 418.400000
14348 9149 16374 1 149.00000 418.400000
14348 9150 15678 1 149.00000 418.400000
14348 9151 14463 1 149.00000 418.400000
14349 9152 14917 1 149.00000 418.400000
14349 9153 15594 1 149.00000 418.400000
14349 9154 15640 1 149.00000 418.400000
14350 9155 16021 1 149.00000 418.400000
14351 9156 15617 1 149.00000 418.400000
14351 9157 15902 1 149.00000 418.400000
14352 9158 15661 1 149.00000 418.400000
12863 9159 14697 1 149.00000 418.400000
14353 9160 15915 1 149.00000 418.400000
14353 9161 15736 1 149.00000 418.400000
14353 9162 15442 1 149.00000 418.400000
14354 9163 14676 1 149.00000 418.400000
14354 9164 22374 1 149.00000 418.400000
14354 9165 16521 1 149.00000 418.400000
14355 9166 16418 1 149.00000 418.400000
14355 9167 15234 1 149.00000 418.400000
15675 9168 21750 1 149.00000 418.400000
14357 9169 15319 1 149.00000 418.400000
14359 9170 15180 1 149.00000 418.400000
14359 9171 16310 1 149.00000 418.400000
12548 9172 18238 1 149.00000 418.400000
14360 9173 15536 1 149.00000 418.400000
11928 9174 16405 1 149.00000 418.400000
15170 9175 15536 1 149.00000 418.400000
14361 9176 15016 1 149.00000 418.400000
14361 9177 16010 1 149.00000 418.400000
14362 9178 14785 1 149.00000 418.400000
14363 9179 15300 1 149.00000 418.400000
15210 9180 21618 1 149.00000 418.400000
14363 9181 16211 1 149.00000 418.400000
14364 9182 15942 1 149.00000 418.400000
14366 9183 22047 1 149.00000 418.400000
14366 9184 14592 1 149.00000 418.400000
14367 9185 15976 1 149.00000 418.400000
14369 9186 16338 1 149.00000 418.400000
14370 9187 14535 1 149.00000 418.400000
14371 9188 15181 1 149.00000 418.400000
18042 9189 21756 1 149.00000 418.400000
15070 9190 21756 1 149.00000 418.400000
21756 9191 22221 1 149.00000 418.400000
14372 9192 14811 1 149.00000 418.400000
17090 9193 17874 1 149.00000 418.400000
12587 9194 17104 1 149.00000 418.400000
14373 9195 16443 1 149.00000 418.400000
14374 9196 15935 1 149.00000 418.400000
14374 9197 15548 1 149.00000 418.400000
14375 9198 15401 1 149.00000 418.400000
14375 9199 15922 1 149.00000 418.400000
14375 9200 15923 1 149.00000 418.400000
14376 9201 15107 1 149.00000 418.400000
14376 9202 22260 1 149.00000 418.400000
14377 9203 15904 1 149.00000 418.400000
14377 9204 15233 1 149.00000 418.400000
14378 9205 16350 1 149.00000 418.400000
14378 9206 14659 1 149.00000 418.400000
14380 9207 16354 1 149.00000 418.400000
14380 9208 16025 1 149.00000 418.400000
14380 9209 15222 1 149.00000 418.400000
14381 9210 22074 1 149.00000 418.400000
14381 9211 16452 1 149.00000 418.400000
14381 9212 15441 1 149.00000 418.400000
14382 9213 14426 1 149.00000 418.400000
14383 9214 15042 1 149.00000 418.400000
14384 9215 15615 1 149.00000 418.400000
14472 9216 15786 1 149.00000 418.400000
14791 9217 16153 1 149.00000 418.400000
14385 9218 14791 1 149.00000 418.400000
14386 9219 14397 1 149.00000 418.400000
14387 9220 15085 1 149.00000 418.400000
14387 9221 15955 1 149.00000 418.400000
14388 9222 15225 1 149.00000 418.400000
14389 9223 14655 1 149.00000 418.400000
14389 9224 14743 1 149.00000 418.400000
14390 9225 15181 1 149.00000 418.400000
14391 9226 15321 1 149.00000 418.400000
14391 9227 14523 1 149.00000 418.400000
12374 9228 14392 1 149.00000 418.400000
14393 9229 14942 1 149.00000 418.400000
14393 9230 14554 1 149.00000 418.400000
14393 9231 16226 1 149.00000 418.400000
14396 9232 15742 1 149.00000 418.400000
14396 9233 15741 1 149.00000 418.400000
14398 9234 15372 1 149.00000 418.400000
14398 9235 14636 1 149.00000 418.400000
14399 9236 15751 1 149.00000 418.400000
14399 9237 14728 1 149.00000 418.400000
14400 9238 16250 1 149.00000 418.400000
14400 9239 14825 1 149.00000 418.400000
14401 9240 15155 1 149.00000 418.400000
14401 9241 14711 1 149.00000 418.400000
14401 9242 16074 1 149.00000 418.400000
14402 9243 16288 1 149.00000 418.400000
14402 9244 14453 1 149.00000 418.400000
14403 9245 15498 1 149.00000 418.400000
14403 9246 14702 1 149.00000 418.400000
14403 9247 22206 1 149.00000 418.400000
14404 9248 15627 1 149.00000 418.400000
14404 9249 14411 1 149.00000 418.400000
14404 9250 14520 1 149.00000 418.400000
14405 9251 14704 1 149.00000 418.400000
14405 9252 15461 1 149.00000 418.400000
14406 9253 16486 1 149.00000 418.400000
16193 9254 21762 1 149.00000 418.400000
14407 9255 14934 1 149.00000 418.400000
14407 9256 14555 1 149.00000 418.400000
14408 9257 15958 1 149.00000 418.400000
14408 9258 15662 1 149.00000 418.400000
14409 9259 15792 1 149.00000 418.400000
14409 9260 14688 1 149.00000 418.400000
14410 9261 14757 1 149.00000 418.400000
14410 9262 15128 1 149.00000 418.400000
15866 9263 17146 1 149.00000 418.400000
14930 9264 17146 1 149.00000 418.400000
14411 9265 15842 1 149.00000 418.400000
14413 9266 15677 1 149.00000 418.400000
14413 9267 14961 1 149.00000 418.400000
14413 9268 16181 1 149.00000 418.400000
21765 9269 21933 1 149.00000 418.400000
14414 9270 21807 1 149.00000 418.400000
15012 9271 21807 1 149.00000 418.400000
14415 9272 15671 1 149.00000 418.400000
14415 9273 14951 1 149.00000 418.400000
14415 9274 16354 1 149.00000 418.400000
14416 9275 15437 1 149.00000 418.400000
14417 9276 22149 1 149.00000 418.400000
14418 9277 15663 1 149.00000 418.400000
14419 9278 16493 1 149.00000 418.400000
14420 9279 15964 1 149.00000 418.400000
14420 9280 14433 1 149.00000 418.400000
14420 9281 16451 1 149.00000 418.400000
14421 9282 14528 1 149.00000 418.400000
12178 9283 15657 1 149.00000 418.400000
21768 9284 21903 1 149.00000 418.400000
14423 9285 16137 1 149.00000 418.400000
15755 9286 21771 1 149.00000 418.400000
14424 9287 15075 1 149.00000 418.400000
14424 9288 14639 1 149.00000 418.400000
14425 9289 15079 1 149.00000 418.400000
14425 9290 15635 1 149.00000 418.400000
14425 9291 16190 1 149.00000 418.400000
14426 9292 15173 1 149.00000 418.400000
14426 9293 16449 1 149.00000 418.400000
14428 9294 15962 1 149.00000 418.400000
14429 9295 16075 1 149.00000 418.400000
14429 9296 15758 1 149.00000 418.400000
14430 9297 16415 1 149.00000 418.400000
14430 9298 14680 1 149.00000 418.400000
14430 9299 14665 1 149.00000 418.400000
14431 9300 15804 1 149.00000 418.400000
14431 9301 15531 1 149.00000 418.400000
14432 9302 15860 1 149.00000 418.400000
14432 9303 15346 1 149.00000 418.400000
12289 9304 14433 1 149.00000 418.400000
14434 9305 15427 1 149.00000 418.400000
14434 9306 15645 1 149.00000 418.400000
14434 9307 14809 1 149.00000 418.400000
14435 9308 15351 1 149.00000 418.400000
14437 9309 16282 1 149.00000 418.400000
14438 9310 14703 1 149.00000 418.400000
14438 9311 15537 1 149.00000 418.400000
14439 9312 15302 1 149.00000 418.400000
14439 9313 16203 1 149.00000 418.400000
14439 9314 14950 1 149.00000 418.400000
14441 9315 15505 1 149.00000 418.400000
14441 9316 15167 1 149.00000 418.400000
14442 9317 16150 1 149.00000 418.400000
14445 9318 14604 1 149.00000 418.400000
14445 9319 16421 1 149.00000 418.400000
14445 9320 14841 1 149.00000 418.400000
14446 9321 14851 1 149.00000 418.400000
14446 9322 16454 1 149.00000 418.400000
14447 9323 15534 1 149.00000 418.400000
14448 9324 15520 1 149.00000 418.400000
14448 9325 15307 1 149.00000 418.400000
14450 9326 15617 1 149.00000 418.400000
14450 9327 15661 1 149.00000 418.400000
14451 9328 15590 1 149.00000 418.400000
12032 9329 12809 1 149.00000 418.400000
14452 9330 15311 1 149.00000 418.400000
14453 9331 14972 1 149.00000 418.400000
14453 9332 16131 1 149.00000 418.400000
14453 9333 15834 1 149.00000 418.400000
14454 9334 15348 1 149.00000 418.400000
13424 9335 14454 1 149.00000 418.400000
14455 9336 15096 1 149.00000 418.400000
14456 9337 15676 1 149.00000 418.400000
14456 9338 15138 1 149.00000 418.400000
14457 9339 16375 1 149.00000 418.400000
14458 9340 15523 1 149.00000 418.400000
14458 9341 15850 1 149.00000 418.400000
14459 9342 16171 1 149.00000 418.400000
14459 9343 14963 1 149.00000 418.400000
14460 9344 22107 1 149.00000 418.400000
14460 9345 15938 1 149.00000 418.400000
14461 9346 15245 1 149.00000 418.400000
14462 9347 14970 1 149.00000 418.400000
18126 9348 21774 1 149.00000 418.400000
14463 9349 15804 1 149.00000 418.400000
14464 9350 14779 1 149.00000 418.400000
14465 9351 14691 1 149.00000 418.400000
12483 9352 14465 1 149.00000 418.400000
14466 9353 16096 1 149.00000 418.400000
14467 9354 16267 1 149.00000 418.400000
14468 9355 14939 1 149.00000 418.400000
14468 9356 15653 1 149.00000 418.400000
14469 9357 14863 1 149.00000 418.400000
14470 9358 15821 1 149.00000 418.400000
14819 9359 15808 1 149.00000 418.400000
14470 9360 14819 1 149.00000 418.400000
14471 9361 15642 1 149.00000 418.400000
14384 9362 15786 1 149.00000 418.400000
14473 9363 15911 1 149.00000 418.400000
14473 9364 14537 1 149.00000 418.400000
14474 9365 15687 1 149.00000 418.400000
14474 9366 15031 1 149.00000 418.400000
14474 9367 16028 1 149.00000 418.400000
14475 9368 16336 1 149.00000 418.400000
14475 9369 15843 1 149.00000 418.400000
14476 9370 14734 1 149.00000 418.400000
14477 9371 14925 1 149.00000 418.400000
14477 9372 15956 1 149.00000 418.400000
14478 9373 16042 1 149.00000 418.400000
14479 9374 14931 1 149.00000 418.400000
16112 9375 17216 1 149.00000 418.400000
14480 9376 16162 1 149.00000 418.400000
14480 9377 15502 1 149.00000 418.400000
14481 9378 15485 1 149.00000 418.400000
14481 9379 14719 1 149.00000 418.400000
14482 9380 15205 1 149.00000 418.400000
14482 9381 16373 1 149.00000 418.400000
14483 9382 16159 1 149.00000 418.400000
14483 9383 14544 1 149.00000 418.400000
14112 9384 14484 1 149.00000 418.400000
14485 9385 16451 1 149.00000 418.400000
14485 9386 14753 1 149.00000 418.400000
14485 9387 16294 1 149.00000 418.400000
16052 9388 21780 1 149.00000 418.400000
14486 9389 15558 1 149.00000 418.400000
14486 9390 14571 1 149.00000 418.400000
14487 9391 15640 1 149.00000 418.400000
14488 9392 14761 1 149.00000 418.400000
14489 9393 14781 1 149.00000 418.400000
11440 9394 14489 1 149.00000 418.400000
14489 9395 22266 1 149.00000 418.400000
14490 9396 16147 1 149.00000 418.400000
14492 9397 15713 1 149.00000 418.400000
14492 9398 14920 1 149.00000 418.400000
14492 9399 16206 1 149.00000 418.400000
14493 9400 14571 1 149.00000 418.400000
14494 9401 14655 1 149.00000 418.400000
14495 9402 22399 1 149.00000 418.400000
14495 9403 14682 1 149.00000 418.400000
14496 9404 15227 1 149.00000 418.400000
17230 9405 21885 1 149.00000 418.400000
14499 9406 15273 1 149.00000 418.400000
14500 9407 15691 1 149.00000 418.400000
14500 9408 16181 1 149.00000 418.400000
14501 9409 15929 1 149.00000 418.400000
14502 9410 15604 1 149.00000 418.400000
14502 9411 16182 1 149.00000 418.400000
14503 9412 14528 1 149.00000 418.400000
14503 9413 15462 1 149.00000 418.400000
14504 9414 15471 1 149.00000 418.400000
14505 9415 14888 1 149.00000 418.400000
14505 9416 15627 1 149.00000 418.400000
14505 9417 15212 1 149.00000 418.400000
14505 9418 16525 1 149.00000 418.400000
14506 9419 14810 1 149.00000 418.400000
14507 9420 16204 1 149.00000 418.400000
12990 9421 14507 1 149.00000 418.400000
14507 9422 15252 1 149.00000 418.400000
14508 9423 14844 1 149.00000 418.400000
14508 9424 21909 1 149.00000 418.400000
14508 9425 15774 1 149.00000 418.400000
14509 9426 14575 1 149.00000 418.400000
14510 9427 15159 1 149.00000 418.400000
14511 9428 14734 1 149.00000 418.400000
14511 9429 16497 1 149.00000 418.400000
14904 9430 17244 1 149.00000 418.400000
14512 9431 15912 1 149.00000 418.400000
14513 9432 14591 1 149.00000 418.400000
14513 9433 15208 1 149.00000 418.400000
14514 9434 16484 1 149.00000 418.400000
14515 9435 15958 1 149.00000 418.400000
14515 9436 16455 1 149.00000 418.400000
14516 9437 14684 1 149.00000 418.400000
14518 9438 15034 1 149.00000 418.400000
14518 9439 16512 1 149.00000 418.400000
14519 9440 15234 1 149.00000 418.400000
14520 9441 22059 1 149.00000 418.400000
14521 9442 15393 1 149.00000 418.400000
14521 9443 16098 1 149.00000 418.400000
14522 9444 16032 1 149.00000 418.400000
14523 9445 14866 1 149.00000 418.400000
14523 9446 15461 1 149.00000 418.400000
14523 9447 14862 1 149.00000 418.400000
14524 9448 15747 1 149.00000 418.400000
14524 9449 14930 1 149.00000 418.400000
14524 9450 16095 1 149.00000 418.400000
14525 9451 16386 1 149.00000 418.400000
13988 9452 14549 1 149.00000 418.400000
14526 9453 15497 1 149.00000 418.400000
14526 9454 14635 1 149.00000 418.400000
14527 9455 15217 1 149.00000 418.400000
16403 9456 17804 1 149.00000 418.400000
14528 9457 15116 1 149.00000 418.400000
14529 9458 21819 1 149.00000 418.400000
14530 9459 15544 1 149.00000 418.400000
14530 9460 21924 1 149.00000 418.400000
14531 9461 16215 1 149.00000 418.400000
14531 9462 16006 1 149.00000 418.400000
14531 9463 15055 1 149.00000 418.400000
14937 9464 17258 1 149.00000 418.400000
12867 9465 14791 1 149.00000 418.400000
14532 9466 15000 1 149.00000 418.400000
14533 9467 15720 1 149.00000 418.400000
14533 9468 14870 1 149.00000 418.400000
12608 9469 14534 1 149.00000 418.400000
14534 9470 16062 1 149.00000 418.400000
14534 9471 15766 1 149.00000 418.400000
14536 9472 15713 1 149.00000 418.400000
14537 9473 14650 1 149.00000 418.400000
14537 9474 16225 1 149.00000 418.400000
14538 9475 16510 1 149.00000 418.400000
14538 9476 15114 1 149.00000 418.400000
14538 9477 15059 1 149.00000 418.400000
14539 9478 16030 1 149.00000 418.400000
14540 9479 21789 1 149.00000 418.400000
14540 9480 15907 1 149.00000 418.400000
14541 9481 14871 1 149.00000 418.400000
14542 9482 15457 1 149.00000 418.400000
14543 9483 15423 1 149.00000 418.400000
14544 9484 16449 1 149.00000 418.400000
14483 9485 14804 1 149.00000 418.400000
12423 9486 15260 1 149.00000 418.400000
14545 9487 14594 1 149.00000 418.400000
14546 9488 16365 1 149.00000 418.400000
14546 9489 15176 1 149.00000 418.400000
14547 9490 14995 1 149.00000 418.400000
14547 9491 14803 1 149.00000 418.400000
17286 9492 21933 1 149.00000 418.400000
14548 9493 15656 1 149.00000 418.400000
14549 9494 14674 1 149.00000 418.400000
14550 9495 15349 1 149.00000 418.400000
14551 9496 14938 1 149.00000 418.400000
14552 9497 15589 1 149.00000 418.400000
14552 9498 15056 1 149.00000 418.400000
14553 9499 15547 1 149.00000 418.400000
15969 9500 17300 1 149.00000 418.400000
14555 9501 14571 1 149.00000 418.400000
14555 9502 15020 1 149.00000 418.400000
14557 9503 16390 1 149.00000 418.400000
14558 9504 22083 1 149.00000 418.400000
16205 9505 22164 1 149.00000 418.400000
21783 9506 22164 1 149.00000 418.400000
14559 9507 15638 1 149.00000 418.400000
13541 9508 14559 1 149.00000 418.400000
14560 9509 15141 1 149.00000 418.400000
12578 9510 15670 1 149.00000 418.400000
14561 9511 14621 1 149.00000 418.400000
14561 9512 15558 1 149.00000 418.400000
14563 9513 14595 1 149.00000 418.400000
14563 9514 15089 1 149.00000 418.400000
14563 9515 15005 1 149.00000 418.400000
14563 9516 16449 1 149.00000 418.400000
12116 9517 15656 1 149.00000 418.400000
14565 9518 15800 1 149.00000 418.400000
14566 9519 14712 1 149.00000 418.400000
15145 9520 21786 1 149.00000 418.400000
14567 9521 14648 1 149.00000 418.400000
14568 9522 16522 1 149.00000 418.400000
14569 9523 16378 1 149.00000 418.400000
14569 9524 16321 1 149.00000 418.400000
14570 9525 15805 1 149.00000 418.400000
15277 9526 21789 1 149.00000 418.400000
14572 9527 15583 1 149.00000 418.400000
14572 9528 15811 1 149.00000 418.400000
14573 9529 14644 1 149.00000 418.400000
14573 9530 14719 1 149.00000 418.400000
14573 9531 15623 1 149.00000 418.400000
15245 9532 15737 1 149.00000 418.400000
14574 9533 15245 1 149.00000 418.400000
14574 9534 16473 1 149.00000 418.400000
14575 9535 15039 1 149.00000 418.400000
14576 9536 16004 1 149.00000 418.400000
14576 9537 15475 1 149.00000 418.400000
14577 9538 14756 1 149.00000 418.400000
14577 9539 16357 1 149.00000 418.400000
14578 9540 14703 1 149.00000 418.400000
14579 9541 22287 1 149.00000 418.400000
14579 9542 17524 1 149.00000 418.400000
14579 9543 15977 1 149.00000 418.400000
14579 9544 14982 1 149.00000 418.400000
14580 9545 15274 1 149.00000 418.400000
14581 9546 16353 1 149.00000 418.400000
15013 9547 17314 1 149.00000 418.400000
14699 9548 17314 1 149.00000 418.400000
21603 9549 22116 1 149.00000 418.400000
14583 9550 15290 1 149.00000 418.400000
14583 9551 15357 1 149.00000 418.400000
14584 9552 16080 1 149.00000 418.400000
14584 9553 16003 1 149.00000 418.400000
14584 9554 15101 1 149.00000 418.400000
14585 9555 15600 1 149.00000 418.400000
14586 9556 14663 1 149.00000 418.400000
14586 9557 21834 1 149.00000 418.400000
17832 9558 20694 1 149.00000 418.400000
14587 9559 15048 1 149.00000 418.400000
14587 9560 15694 1 149.00000 418.400000
14588 9561 18364 1 149.00000 418.400000
14588 9562 21984 1 149.00000 418.400000
14942 9563 17342 1 149.00000 418.400000
14589 9564 14954 1 149.00000 418.400000
14590 9565 16329 1 149.00000 418.400000
14590 9566 16148 1 149.00000 418.400000
14513 9567 15469 1 149.00000 418.400000
13938 9568 17356 1 149.00000 418.400000
14592 9569 15534 1 149.00000 418.400000
14592 9570 15076 1 149.00000 418.400000
14593 9571 15039 1 149.00000 418.400000
14595 9572 15174 1 149.00000 418.400000
14596 9573 15899 1 149.00000 418.400000
14597 9574 22050 1 149.00000 418.400000
14597 9575 22008 1 149.00000 418.400000
14598 9576 22299 1 149.00000 418.400000
14598 9577 16426 1 149.00000 418.400000
14599 9578 22305 1 149.00000 418.400000
14600 9579 15095 1 149.00000 418.400000
14601 9580 16471 1 149.00000 418.400000
14602 9581 22077 1 149.00000 418.400000
14602 9582 15775 1 149.00000 418.400000
14602 9583 18378 1 149.00000 418.400000
14605 9584 16258 1 149.00000 418.400000
14605 9585 15763 1 149.00000 418.400000
14606 9586 16298 1 149.00000 418.400000
14607 9587 16034 1 149.00000 418.400000
14608 9588 16219 1 149.00000 418.400000
14608 9589 16218 1 149.00000 418.400000
14608 9590 15445 1 149.00000 418.400000
14610 9591 14929 1 149.00000 418.400000
14610 9592 14982 1 149.00000 418.400000
14611 9593 15775 1 149.00000 418.400000
14611 9594 15645 1 149.00000 418.400000
14612 9595 15922 1 149.00000 418.400000
14612 9596 14687 1 149.00000 418.400000
15230 9597 15922 1 149.00000 418.400000
14613 9598 14709 1 149.00000 418.400000
14613 9599 16036 1 149.00000 418.400000
14614 9600 15779 1 149.00000 418.400000
14845 9601 21792 1 149.00000 418.400000
21792 9602 21996 1 149.00000 418.400000
14615 9603 21918 1 149.00000 418.400000
14616 9604 15987 1 149.00000 418.400000
14616 9605 14756 1 149.00000 418.400000
15755 9606 21795 1 149.00000 418.400000
14617 9607 15567 1 149.00000 418.400000
14617 9608 15833 1 149.00000 418.400000
14618 9609 16088 1 149.00000 418.400000
16088 9610 16110 1 149.00000 418.400000
15994 9611 16088 1 149.00000 418.400000
14619 9612 16169 1 149.00000 418.400000
14619 9613 15595 1 149.00000 418.400000
14620 9614 15295 1 149.00000 418.400000
14620 9615 15622 1 149.00000 418.400000
14622 9616 15607 1 149.00000 418.400000
14622 9617 16387 1 149.00000 418.400000
14623 9618 15782 1 149.00000 418.400000
14624 9619 15315 1 149.00000 418.400000
14625 9620 16419 1 149.00000 418.400000
15013 9621 20034 1 149.00000 418.400000
17384 9622 17860 1 149.00000 418.400000
14629 9623 16142 1 149.00000 418.400000
14629 9624 16125 1 149.00000 418.400000
14629 9625 15943 1 149.00000 418.400000
14631 9626 16173 1 149.00000 418.400000
14631 9627 15377 1 149.00000 418.400000
14631 9628 15409 1 149.00000 418.400000
14631 9629 14713 1 149.00000 418.400000
14632 9630 16087 1 149.00000 418.400000
14632 9631 14933 1 149.00000 418.400000
14633 9632 15662 1 149.00000 418.400000
15487 9633 15662 1 149.00000 418.400000
14633 9634 16455 1 149.00000 418.400000
14634 9635 15007 1 149.00000 418.400000
14634 9636 15078 1 149.00000 418.400000
14635 9637 15650 1 149.00000 418.400000
14636 9638 16372 1 149.00000 418.400000
14636 9639 16456 1 149.00000 418.400000
14637 9640 15177 1 149.00000 418.400000
14638 9641 14932 1 149.00000 418.400000
14639 9642 22008 1 149.00000 418.400000
14639 9643 17636 1 149.00000 418.400000
16274 9644 17398 1 149.00000 418.400000
17398 9645 22242 1 149.00000 418.400000
14640 9646 15966 1 149.00000 418.400000
14640 9647 15809 1 149.00000 418.400000
17692 9648 21801 1 149.00000 418.400000
14642 9649 15723 1 149.00000 418.400000
14642 9650 15969 1 149.00000 418.400000
14642 9651 16156 1 149.00000 418.400000
14643 9652 15592 1 149.00000 418.400000
15256 9653 21804 1 149.00000 418.400000
15857 9654 21810 1 149.00000 418.400000
15521 9655 15708 1 149.00000 418.400000
14646 9656 15708 1 149.00000 418.400000
14647 9657 15303 1 149.00000 418.400000
14648 9658 15547 1 149.00000 418.400000
14648 9659 15238 1 149.00000 418.400000
14648 9660 16164 1 149.00000 418.400000
14649 9661 15820 1 149.00000 418.400000
14649 9662 15058 1 149.00000 418.400000
14649 9663 14732 1 149.00000 418.400000
14650 9664 16013 1 149.00000 418.400000
14651 9665 21840 1 149.00000 418.400000
14651 9666 15019 1 149.00000 418.400000
14652 9667 15934 1 149.00000 418.400000
14652 9668 22251 1 149.00000 418.400000
14652 9669 14802 1 149.00000 418.400000
14652 9670 15619 1 149.00000 418.400000
14653 9671 14846 1 149.00000 418.400000
17020 9672 21813 1 149.00000 418.400000
16328 9673 21816 1 149.00000 418.400000
14654 9674 14937 1 149.00000 418.400000
14655 9675 15953 1 149.00000 418.400000
14656 9676 14793 1 149.00000 418.400000
14657 9677 15436 1 149.00000 418.400000
14657 9678 21969 1 149.00000 418.400000
14657 9679 22038 1 149.00000 418.400000
14658 9680 16359 1 149.00000 418.400000
14658 9681 15034 1 149.00000 418.400000
14658 9682 15163 1 149.00000 418.400000
16417 9683 21819 1 149.00000 418.400000
14659 9684 15038 1 149.00000 418.400000
14660 9685 15694 1 149.00000 418.400000
14660 9686 15449 1 149.00000 418.400000
15701 9687 16450 1 149.00000 418.400000
14661 9688 16450 1 149.00000 418.400000
14662 9689 16149 1 149.00000 418.400000
21822 9690 22167 1 149.00000 418.400000
14663 9691 22359 1 149.00000 418.400000
14664 9692 16100 1 149.00000 418.400000
14665 9693 16436 1 149.00000 418.400000
14666 9694 14874 1 149.00000 418.400000
14666 9695 15452 1 149.00000 418.400000
14667 9696 16415 1 149.00000 418.400000
14667 9697 15602 1 149.00000 418.400000
14668 9698 15058 1 149.00000 418.400000
14669 9699 15539 1 149.00000 418.400000
14669 9700 16156 1 149.00000 418.400000
14669 9701 22245 1 149.00000 418.400000
14670 9702 14688 1 149.00000 418.400000
14670 9703 15341 1 149.00000 418.400000
14670 9704 15908 1 149.00000 418.400000
14671 9705 15944 1 149.00000 418.400000
14671 9706 15829 1 149.00000 418.400000
14830 9707 15944 1 149.00000 418.400000
14672 9708 15847 1 149.00000 418.400000
11710 9709 14673 1 149.00000 418.400000
14674 9710 15658 1 149.00000 418.400000
14674 9711 15604 1 149.00000 418.400000
14675 9712 15057 1 149.00000 418.400000
14675 9713 15218 1 149.00000 418.400000
14676 9714 15876 1 149.00000 418.400000
14676 9715 15625 1 149.00000 418.400000
14677 9716 16497 1 149.00000 418.400000
14677 9717 14915 1 149.00000 418.400000
14678 9718 14684 1 149.00000 418.400000
14679 9719 15743 1 149.00000 418.400000
14679 9720 15214 1 149.00000 418.400000
14679 9721 14859 1 149.00000 418.400000
14681 9722 15170 1 149.00000 418.400000
14681 9723 15882 1 149.00000 418.400000
14683 9724 15755 1 149.00000 418.400000
14684 9725 14929 1 149.00000 418.400000
14685 9726 15958 1 149.00000 418.400000
11875 9727 21828 1 149.00000 418.400000
14686 9728 15658 1 149.00000 418.400000
15285 9729 15562 1 149.00000 418.400000
14687 9730 15562 1 149.00000 418.400000
14689 9731 15630 1 149.00000 418.400000
14690 9732 22062 1 149.00000 418.400000
14690 9733 15997 1 149.00000 418.400000
14690 9734 22146 1 149.00000 418.400000
14690 9735 16345 1 149.00000 418.400000
14691 9736 14962 1 149.00000 418.400000
14691 9737 15400 1 149.00000 418.400000
14691 9738 15446 1 149.00000 418.400000
14692 9739 15565 1 149.00000 418.400000
12965 9740 15791 1 149.00000 418.400000
14694 9741 15500 1 149.00000 418.400000
14695 9742 15320 1 149.00000 418.400000
14695 9743 15796 1 149.00000 418.400000
14696 9744 22206 1 149.00000 418.400000
14696 9745 16085 1 149.00000 418.400000
14697 9746 15546 1 149.00000 418.400000
14697 9747 15717 1 149.00000 418.400000
14698 9748 16430 1 149.00000 418.400000
14699 9749 16437 1 149.00000 418.400000
14699 9750 14806 1 149.00000 418.400000
14700 9751 22038 1 149.00000 418.400000
14700 9752 15577 1 149.00000 418.400000
14700 9753 15345 1 149.00000 418.400000
14701 9754 15068 1 149.00000 418.400000
14702 9755 14717 1 149.00000 418.400000
14702 9756 16039 1 149.00000 418.400000
14706 9757 15113 1 149.00000 418.400000
14706 9758 14985 1 149.00000 418.400000
14822 9759 15417 1 149.00000 418.400000
14708 9760 14822 1 149.00000 418.400000
14709 9761 14729 1 149.00000 418.400000
14710 9762 16324 1 149.00000 418.400000
14710 9763 15276 1 149.00000 418.400000
14736 9764 17440 1 149.00000 418.400000
17440 9765 17916 1 149.00000 418.400000
14711 9766 22068 1 149.00000 418.400000
14712 9767 15165 1 149.00000 418.400000
14712 9768 22002 1 149.00000 418.400000
14713 9769 14788 1 149.00000 418.400000
14713 9770 15498 1 149.00000 418.400000
14714 9771 16468 1 149.00000 418.400000
14714 9772 15777 1 149.00000 418.400000
14716 9773 15435 1 149.00000 418.400000
14717 9774 15880 1 149.00000 418.400000
14718 9775 15765 1 149.00000 418.400000
14719 9776 16421 1 149.00000 418.400000
14481 9777 15201 1 149.00000 418.400000
14720 9778 15927 1 149.00000 418.400000
14720 9779 15471 1 149.00000 418.400000
14721 9780 16166 1 149.00000 418.400000
14722 9781 15990 1 149.00000 418.400000
14722 9782 16307 1 149.00000 418.400000
14723 9783 16313 1 149.00000 418.400000
14723 9784 14861 1 149.00000 418.400000
14723 9785 15522 1 149.00000 418.400000
14724 9786 15955 1 149.00000 418.400000
14725 9787 14787 1 149.00000 418.400000
13215 9788 14725 1 149.00000 418.400000
14726 9789 15770 1 149.00000 418.400000
14727 9790 16175 1 149.00000 418.400000
14727 9791 15413 1 149.00000 418.400000
14727 9792 14906 1 149.00000 418.400000
14729 9793 16518 1 149.00000 418.400000
14730 9794 15980 1 149.00000 418.400000
14730 9795 15657 1 149.00000 418.400000
14731 9796 15060 1 149.00000 418.400000
11407 9797 14731 1 149.00000 418.400000
14733 9798 15264 1 149.00000 418.400000
14733 9799 15501 1 149.00000 418.400000
14735 9800 15009 1 149.00000 418.400000
14735 9801 15483 1 149.00000 418.400000
14736 9802 15110 1 149.00000 418.400000
14736 9803 21990 1 149.00000 418.400000
14738 9804 22104 1 149.00000 418.400000
14740 9805 14878 1 149.00000 418.400000
16495 9806 21840 1 149.00000 418.400000
14741 9807 22341 1 149.00000 418.400000
16235 9808 21843 1 149.00000 418.400000
14742 9809 14821 1 149.00000 418.400000
14742 9810 15438 1 149.00000 418.400000
14743 9811 14783 1 149.00000 418.400000
14743 9812 16432 1 149.00000 418.400000
14744 9813 14752 1 149.00000 418.400000
14744 9814 16353 1 149.00000 418.400000
14744 9815 15666 1 149.00000 418.400000
14745 9816 14868 1 149.00000 418.400000
13519 9817 14746 1 149.00000 418.400000
14746 9818 16130 1 149.00000 418.400000
14747 9819 15770 1 149.00000 418.400000
14747 9820 15926 1 149.00000 418.400000
14749 9821 15125 1 149.00000 418.400000
14750 9822 14889 1 149.00000 418.400000
14750 9823 21909 1 149.00000 418.400000
15037 9824 21846 1 149.00000 418.400000
16188 9825 17468 1 149.00000 418.400000
14752 9826 16155 1 149.00000 418.400000
14753 9827 22194 1 149.00000 418.400000
14753 9828 21996 1 149.00000 418.400000
14754 9829 15813 1 149.00000 418.400000
14754 9830 15111 1 149.00000 418.400000
14755 9831 16220 1 149.00000 418.400000
14755 9832 15840 1 149.00000 418.400000
14755 9833 16339 1 149.00000 418.400000
14756 9834 15624 1 149.00000 418.400000
14757 9835 22293 1 149.00000 418.400000
14758 9836 14920 1 149.00000 418.400000
13800 9837 14758 1 149.00000 418.400000
14758 9838 15274 1 149.00000 418.400000
12988 9839 14760 1 149.00000 418.400000
14760 9840 15364 1 149.00000 418.400000
14761 9841 15117 1 149.00000 418.400000
14761 9842 14839 1 149.00000 418.400000
14763 9843 14930 1 149.00000 418.400000
14763 9844 22344 1 149.00000 418.400000
14765 9845 16321 1 149.00000 418.400000
11613 9846 14765 1 149.00000 418.400000
11421 9847 14765 1 149.00000 418.400000
14766 9848 15051 1 149.00000 418.400000
14767 9849 15537 1 149.00000 418.400000
14767 9850 16399 1 149.00000 418.400000
14768 9851 15828 1 149.00000 418.400000
18196 9852 21852 1 149.00000 418.400000
16423 9853 21852 1 149.00000 418.400000
14769 9854 16484 1 149.00000 418.400000
14771 9855 15899 1 149.00000 418.400000
14771 9856 14876 1 149.00000 418.400000
14772 9857 16187 1 149.00000 418.400000
14773 9858 14820 1 149.00000 418.400000
14773 9859 18336 1 149.00000 418.400000
14774 9860 15628 1 149.00000 418.400000
14774 9861 15445 1 149.00000 418.400000
14775 9862 16127 1 149.00000 418.400000
14775 9863 16131 1 149.00000 418.400000
14776 9864 14941 1 149.00000 418.400000
14777 9865 15000 1 149.00000 418.400000
14777 9866 15684 1 149.00000 418.400000
14778 9867 15431 1 149.00000 418.400000
14778 9868 16377 1 149.00000 418.400000
14778 9869 15547 1 149.00000 418.400000
14779 9870 14968 1 149.00000 418.400000
14780 9871 15923 1 149.00000 418.400000
14780 9872 16090 1 149.00000 418.400000
14781 9873 15356 1 149.00000 418.400000
14781 9874 14939 1 149.00000 418.400000
14782 9875 16380 1 149.00000 418.400000
14782 9876 15712 1 149.00000 418.400000
14783 9877 22434 1 149.00000 418.400000
14783 9878 15458 1 149.00000 418.400000
14784 9879 15484 1 149.00000 418.400000
14785 9880 16406 1 149.00000 418.400000
14785 9881 15499 1 149.00000 418.400000
14786 9882 15527 1 149.00000 418.400000
14786 9883 15433 1 149.00000 418.400000
14787 9884 14936 1 149.00000 418.400000
14790 9885 16485 1 149.00000 418.400000
14793 9886 16482 1 149.00000 418.400000
13025 9887 15337 1 149.00000 418.400000
14795 9888 16057 1 149.00000 418.400000
13025 9889 14795 1 149.00000 418.400000
14796 9890 16149 1 149.00000 418.400000
14796 9891 16292 1 149.00000 418.400000
12831 9892 14796 1 149.00000 418.400000
14797 9893 15050 1 149.00000 418.400000
14797 9894 15923 1 149.00000 418.400000
14798 9895 16236 1 149.00000 418.400000
14799 9896 15176 1 149.00000 418.400000
14800 9897 16483 1 149.00000 418.400000
14800 9898 15285 1 149.00000 418.400000
14801 9899 18210 1 149.00000 418.400000
14803 9900 15371 1 149.00000 418.400000
14803 9901 15821 1 149.00000 418.400000
14803 9902 14825 1 149.00000 418.400000
21864 9903 22308 1 149.00000 418.400000
21864 9904 21957 1 149.00000 418.400000
15739 9905 21864 1 149.00000 418.400000
14804 9906 15214 1 149.00000 418.400000
14804 9907 16120 1 149.00000 418.400000
14805 9908 15270 1 149.00000 418.400000
14805 9909 15384 1 149.00000 418.400000
14806 9910 15097 1 149.00000 418.400000
14807 9911 15746 1 149.00000 418.400000
14808 9912 16300 1 149.00000 418.400000
14809 9913 15971 1 149.00000 418.400000
14812 9914 15646 1 149.00000 418.400000
14812 9915 15003 1 149.00000 418.400000
14813 9916 14992 1 149.00000 418.400000
14814 9917 16153 1 149.00000 418.400000
14814 9918 15031 1 149.00000 418.400000
14815 9919 15340 1 149.00000 418.400000
14815 9920 15934 1 149.00000 418.400000
14816 9921 15936 1 149.00000 418.400000
14186 9922 14817 1 149.00000 418.400000
12860 9923 16486 1 149.00000 418.400000
14818 9924 16390 1 149.00000 418.400000
14818 9925 15047 1 149.00000 418.400000
14819 9926 15458 1 149.00000 418.400000
14820 9927 22161 1 149.00000 418.400000
14821 9928 16069 1 149.00000 418.400000
14823 9929 15432 1 149.00000 418.400000
15990 9930 21870 1 149.00000 418.400000
14824 9931 16177 1 149.00000 418.400000
14824 9932 15474 1 149.00000 418.400000
16056 9933 21873 1 149.00000 418.400000
14825 9934 15133 1 149.00000 418.400000
14826 9935 14876 1 149.00000 418.400000
14827 9936 15588 1 149.00000 418.400000
14827 9937 15492 1 149.00000 418.400000
13516 9938 14828 1 149.00000 418.400000
12380 9939 14829 1 149.00000 418.400000
14117 9940 15136 1 149.00000 418.400000
14830 9941 16104 1 149.00000 418.400000
14830 9942 14917 1 149.00000 418.400000
14832 9943 15128 1 149.00000 418.400000
14833 9944 15600 1 149.00000 418.400000
14834 9945 15939 1 149.00000 418.400000
14834 9946 15265 1 149.00000 418.400000
14835 9947 15805 1 149.00000 418.400000
14835 9948 15289 1 149.00000 418.400000
15583 9949 21876 1 149.00000 418.400000
21876 9950 22188 1 149.00000 418.400000
14836 9951 15690 1 149.00000 418.400000
14836 9952 15598 1 149.00000 418.400000
14836 9953 15582 1 149.00000 418.400000
14836 9954 15682 1 149.00000 418.400000
11584 9955 15437 1 149.00000 418.400000
14839 9956 14923 1 149.00000 418.400000
14840 9957 15783 1 149.00000 418.400000
14841 9958 15750 1 149.00000 418.400000
14842 9959 16186 1 149.00000 418.400000
14842 9960 16273 1 149.00000 418.400000
14843 9961 15647 1 149.00000 418.400000
14844 9962 16168 1 149.00000 418.400000
14844 9963 14889 1 149.00000 418.400000
14845 9964 15549 1 149.00000 418.400000
21879 9965 21882 1 149.00000 418.400000
16241 9966 21879 1 149.00000 418.400000
14846 9967 15064 1 149.00000 418.400000
14847 9968 15139 1 149.00000 418.400000
14618 9969 14847 1 149.00000 418.400000
14848 9970 15374 1 149.00000 418.400000
14850 9971 22350 1 149.00000 418.400000
14850 9972 15137 1 149.00000 418.400000
14851 9973 15636 1 149.00000 418.400000
13747 9974 14852 1 149.00000 418.400000
14852 9975 15177 1 149.00000 418.400000
14853 9976 15855 1 149.00000 418.400000
14854 9977 15712 1 149.00000 418.400000
11691 9978 16262 1 149.00000 418.400000
13671 9979 14856 1 149.00000 418.400000
14856 9980 15023 1 149.00000 418.400000
13250 9981 14960 1 149.00000 418.400000
14858 9982 16176 1 149.00000 418.400000
14859 9983 15302 1 149.00000 418.400000
14860 9984 15638 1 149.00000 418.400000
14860 9985 15832 1 149.00000 418.400000
14861 9986 16458 1 149.00000 418.400000
14863 9987 15581 1 149.00000 418.400000
14864 9988 15315 1 149.00000 418.400000
14864 9989 15794 1 149.00000 418.400000
17538 9990 22128 1 149.00000 418.400000
14865 9991 17972 1 149.00000 418.400000
14865 9992 22149 1 149.00000 418.400000
15593 9993 21885 1 149.00000 418.400000
15412 9994 15752 1 149.00000 418.400000
15752 9995 21885 1 149.00000 418.400000
14866 9996 15948 1 149.00000 418.400000
14869 9997 15509 1 149.00000 418.400000
14869 9998 15862 1 149.00000 418.400000
12776 9999 14870 1 149.00000 418.400000
14870 10000 14957 1 149.00000 418.400000
14870 10001 15790 1 149.00000 418.400000
14872 10002 15448 1 149.00000 418.400000
14872 10003 15556 1 149.00000 418.400000
14872 10004 22305 1 149.00000 418.400000
14873 10005 16155 1 149.00000 418.400000
14873 10006 15294 1 149.00000 418.400000
14874 10007 16395 1 149.00000 418.400000
14875 10008 15394 1 149.00000 418.400000
14876 10009 15343 1 149.00000 418.400000
14877 10010 14965 1 149.00000 418.400000
14877 10011 16414 1 149.00000 418.400000
21888 10012 21927 1 149.00000 418.400000
14879 10013 15856 1 149.00000 418.400000
14879 10014 15429 1 149.00000 418.400000
14880 10015 15188 1 149.00000 418.400000
14881 10016 15956 1 149.00000 418.400000
14881 10017 16161 1 149.00000 418.400000
14882 10018 15939 1 149.00000 418.400000
14882 10019 15456 1 149.00000 418.400000
14882 10020 15888 1 149.00000 418.400000
14977 10021 21891 1 149.00000 418.400000
13169 10022 14883 1 149.00000 418.400000
14883 10023 16262 1 149.00000 418.400000
13169 10024 16413 1 149.00000 418.400000
14884 10025 15810 1 149.00000 418.400000
14885 10026 16180 1 149.00000 418.400000
14886 10027 15178 1 149.00000 418.400000
13989 10028 14886 1 149.00000 418.400000
14888 10029 15459 1 149.00000 418.400000
14890 10030 16118 1 149.00000 418.400000
14891 10031 15097 1 149.00000 418.400000
15326 10032 21270 1 149.00000 418.400000
14892 10033 17930 1 149.00000 418.400000
21894 10034 21987 1 149.00000 418.400000
15427 10035 21894 1 149.00000 418.400000
21894 10036 22350 1 149.00000 418.400000
14896 10037 16501 1 149.00000 418.400000
12516 10038 14896 1 149.00000 418.400000
14897 10039 16363 1 149.00000 418.400000
14898 10040 15081 1 149.00000 418.400000
14899 10041 16116 1 149.00000 418.400000
14900 10042 15807 1 149.00000 418.400000
14900 10043 16263 1 149.00000 418.400000
14902 10044 16307 1 149.00000 418.400000
14902 10045 15834 1 149.00000 418.400000
14903 10046 22239 1 149.00000 418.400000
14903 10047 22263 1 149.00000 418.400000
14904 10048 21954 1 149.00000 418.400000
14905 10049 22203 1 149.00000 418.400000
14905 10050 15542 1 149.00000 418.400000
14906 10051 15311 1 149.00000 418.400000
13072 10052 16432 1 149.00000 418.400000
14908 10053 22449 1 149.00000 418.400000
14909 10054 15072 1 149.00000 418.400000
13056 10055 15013 1 149.00000 418.400000
14911 10056 16443 1 149.00000 418.400000
14912 10057 16178 1 149.00000 418.400000
14912 10058 15845 1 149.00000 418.400000
14914 10059 16507 1 149.00000 418.400000
14914 10060 15728 1 149.00000 418.400000
14914 10061 16023 1 149.00000 418.400000
15442 10062 16349 1 149.00000 418.400000
13875 10063 18266 1 149.00000 418.400000
14916 10064 16040 1 149.00000 418.400000
14918 10065 16296 1 149.00000 418.400000
14918 10066 15693 1 149.00000 418.400000
14919 10067 15940 1 149.00000 418.400000
15373 10068 21897 1 149.00000 418.400000
19074 10069 21897 1 149.00000 418.400000
14923 10070 16065 1 149.00000 418.400000
14924 10071 15005 1 149.00000 418.400000
14925 10072 15258 1 149.00000 418.400000
14925 10073 16113 1 149.00000 418.400000
14926 10074 15864 1 149.00000 418.400000
12966 10075 16247 1 149.00000 418.400000
14927 10076 15399 1 149.00000 418.400000
14928 10077 16261 1 149.00000 418.400000
14928 10078 16311 1 149.00000 418.400000
14928 10079 16344 1 149.00000 418.400000
21102 10080 22155 1 149.00000 418.400000
15435 10081 21900 1 149.00000 418.400000
14479 10082 18028 1 149.00000 418.400000
17580 10083 22341 1 149.00000 418.400000
15844 10084 20262 1 149.00000 418.400000
16064 10085 21903 1 149.00000 418.400000
15144 10086 21903 1 149.00000 418.400000
14933 10087 22329 1 149.00000 418.400000
14934 10088 15068 1 149.00000 418.400000
14935 10089 15741 1 149.00000 418.400000
14936 10090 15171 1 149.00000 418.400000
14938 10091 16005 1 149.00000 418.400000
11666 10092 14938 1 149.00000 418.400000
14939 10093 16410 1 149.00000 418.400000
14939 10094 14978 1 149.00000 418.400000
14940 10095 16124 1 149.00000 418.400000
14940 10096 16150 1 149.00000 418.400000
14941 10097 15151 1 149.00000 418.400000
14946 10098 16249 1 149.00000 418.400000
14946 10099 15594 1 149.00000 418.400000
14946 10100 15640 1 149.00000 418.400000
14947 10101 16416 1 149.00000 418.400000
14948 10102 16373 1 149.00000 418.400000
14948 10103 16333 1 149.00000 418.400000
21906 10104 21972 1 149.00000 418.400000
15629 10105 19890 1 149.00000 418.400000
14951 10106 16397 1 149.00000 418.400000
14952 10107 16370 1 149.00000 418.400000
14953 10108 15566 1 149.00000 418.400000
14953 10109 15939 1 149.00000 418.400000
14954 10110 14973 1 149.00000 418.400000
14954 10111 15545 1 149.00000 418.400000
14955 10112 15054 1 149.00000 418.400000
14955 10113 15876 1 149.00000 418.400000
14956 10114 14975 1 149.00000 418.400000
14957 10115 16405 1 149.00000 418.400000
14957 10116 15008 1 149.00000 418.400000
14958 10117 16259 1 149.00000 418.400000
14958 10118 14974 1 149.00000 418.400000
13963 10119 16084 1 149.00000 418.400000
14960 10120 15001 1 149.00000 418.400000
15404 10121 21912 1 149.00000 418.400000
14962 10122 15520 1 149.00000 418.400000
14963 10123 15463 1 149.00000 418.400000
21915 10124 22364 1 149.00000 418.400000
14965 10125 15209 1 149.00000 418.400000
14965 10126 15523 1 149.00000 418.400000
14966 10127 16326 1 149.00000 418.400000
14967 10128 15884 1 149.00000 418.400000
14969 10129 15008 1 149.00000 418.400000
14969 10130 15882 1 149.00000 418.400000
14970 10131 15407 1 149.00000 418.400000
14971 10132 15524 1 149.00000 418.400000
14971 10133 15106 1 149.00000 418.400000
14088 10134 14971 1 149.00000 418.400000
14971 10135 15122 1 149.00000 418.400000
14972 10136 15979 1 149.00000 418.400000
14973 10137 15094 1 149.00000 418.400000
14974 10138 15776 1 149.00000 418.400000
14976 10139 15399 1 149.00000 418.400000
18056 10140 21918 1 149.00000 418.400000
15862 10141 21921 1 149.00000 418.400000
14979 10142 15403 1 149.00000 418.400000
16029 10143 17622 1 149.00000 418.400000
14980 10144 16019 1 149.00000 418.400000
14981 10145 15700 1 149.00000 418.400000
14981 10146 22176 1 149.00000 418.400000
14981 10147 15396 1 149.00000 418.400000
21924 10148 22356 1 149.00000 418.400000
21924 10149 21990 1 149.00000 418.400000
15282 10150 15783 1 149.00000 418.400000
14983 10151 15783 1 149.00000 418.400000
14984 10152 16475 1 149.00000 418.400000
14986 10153 15194 1 149.00000 418.400000
14986 10154 15547 1 149.00000 418.400000
14987 10155 15455 1 149.00000 418.400000
12736 10156 16385 1 149.00000 418.400000
14988 10157 16497 1 149.00000 418.400000
14989 10158 22308 1 149.00000 418.400000
14990 10159 15144 1 149.00000 418.400000
14991 10160 16120 1 149.00000 418.400000
14993 10161 15638 1 149.00000 418.400000
14993 10162 15131 1 149.00000 418.400000
14994 10163 15987 1 149.00000 418.400000
14994 10164 15158 1 149.00000 418.400000
18392 10165 21927 1 149.00000 418.400000
14996 10166 15290 1 149.00000 418.400000
14997 10167 15205 1 149.00000 418.400000
14998 10168 16489 1 149.00000 418.400000
14998 10169 15984 1 149.00000 418.400000
15000 10170 16183 1 149.00000 418.400000
15001 10171 15311 1 149.00000 418.400000
15002 10172 16277 1 149.00000 418.400000
15002 10173 15351 1 149.00000 418.400000
15003 10174 16493 1 149.00000 418.400000
15004 10175 15470 1 149.00000 418.400000
15004 10176 15099 1 149.00000 418.400000
15005 10177 16016 1 149.00000 418.400000
15006 10178 15690 1 149.00000 418.400000
15006 10179 15470 1 149.00000 418.400000
15006 10180 16490 1 149.00000 418.400000
15008 10181 15170 1 149.00000 418.400000
15008 10182 16024 1 149.00000 418.400000
15009 10183 16489 1 149.00000 418.400000
15009 10184 15727 1 149.00000 418.400000
16044 10185 21930 1 149.00000 418.400000
15010 10186 15463 1 149.00000 418.400000
15011 10187 15973 1 149.00000 418.400000
15011 10188 15395 1 149.00000 418.400000
15013 10189 15624 1 149.00000 418.400000
15014 10190 16096 1 149.00000 418.400000
15014 10191 16192 1 149.00000 418.400000
15015 10192 15685 1 149.00000 418.400000
13506 10193 15015 1 149.00000 418.400000
15016 10194 16146 1 149.00000 418.400000
16146 10195 19110 1 149.00000 418.400000
15017 10196 16504 1 149.00000 418.400000
15017 10197 21939 1 149.00000 418.400000
15018 10198 16201 1 149.00000 418.400000
16038 10199 21933 1 149.00000 418.400000
15019 10200 15630 1 149.00000 418.400000
15020 10201 15160 1 149.00000 418.400000
15020 10202 16519 1 149.00000 418.400000
15021 10203 15175 1 149.00000 418.400000
15022 10204 15953 1 149.00000 418.400000
15023 10205 15890 1 149.00000 418.400000
12001 10206 15025 1 149.00000 418.400000
15025 10207 15282 1 149.00000 418.400000
15025 10208 16002 1 149.00000 418.400000
15026 10209 15709 1 149.00000 418.400000
15026 10210 16065 1 149.00000 418.400000
15027 10211 15774 1 149.00000 418.400000
15027 10212 15714 1 149.00000 418.400000
21936 10213 22155 1 149.00000 418.400000
15028 10214 15184 1 149.00000 418.400000
15028 10215 16387 1 149.00000 418.400000
15029 10216 16160 1 149.00000 418.400000
15030 10217 15845 1 149.00000 418.400000
15031 10218 15514 1 149.00000 418.400000
15031 10219 15854 1 149.00000 418.400000
15032 10220 15259 1 149.00000 418.400000
15032 10221 21975 1 149.00000 418.400000
15032 10222 22419 1 149.00000 418.400000
15033 10223 15873 1 149.00000 418.400000
15034 10224 15588 1 149.00000 418.400000
15035 10225 16299 1 149.00000 418.400000
15035 10226 16500 1 149.00000 418.400000
15035 10227 16095 1 149.00000 418.400000
15036 10228 16165 1 149.00000 418.400000
16521 10229 21939 1 149.00000 418.400000
16076 10230 21942 1 149.00000 418.400000
15037 10231 15641 1 149.00000 418.400000
15038 10232 15195 1 149.00000 418.400000
15038 10233 15339 1 149.00000 418.400000
15039 10234 16407 1 149.00000 418.400000
15039 10235 16227 1 149.00000 418.400000
15040 10236 16035 1 149.00000 418.400000
15040 10237 15600 1 149.00000 418.400000
13217 10238 21945 1 149.00000 418.400000
11523 10239 21945 1 149.00000 418.400000
15042 10240 15740 1 149.00000 418.400000
15042 10241 15721 1 149.00000 418.400000
15043 10242 15863 1 149.00000 418.400000
15043 10243 15330 1 149.00000 418.400000
15044 10244 16522 1 149.00000 418.400000
15046 10245 16408 1 149.00000 418.400000
15047 10246 15475 1 149.00000 418.400000
15048 10247 15528 1 149.00000 418.400000
13604 10248 15049 1 149.00000 418.400000
15049 10249 16204 1 149.00000 418.400000
15050 10250 15190 1 149.00000 418.400000
15051 10251 15382 1 149.00000 418.400000
15051 10252 15330 1 149.00000 418.400000
15052 10253 15118 1 149.00000 418.400000
15052 10254 15174 1 149.00000 418.400000
15054 10255 16476 1 149.00000 418.400000
15055 10256 16502 1 149.00000 418.400000
15055 10257 15383 1 149.00000 418.400000
15057 10258 16488 1 149.00000 418.400000
14675 10259 15634 1 149.00000 418.400000
15059 10260 15994 1 149.00000 418.400000
15059 10261 16338 1 149.00000 418.400000
15060 10262 15353 1 149.00000 418.400000
15061 10263 15180 1 149.00000 418.400000
15061 10264 16272 1 149.00000 418.400000
15062 10265 15134 1 149.00000 418.400000
14769 10266 15063 1 149.00000 418.400000
15063 10267 15684 1 149.00000 418.400000
15064 10268 15653 1 149.00000 418.400000
15064 10269 15794 1 149.00000 418.400000
15066 10270 21972 1 149.00000 418.400000
15066 10271 15197 1 149.00000 418.400000
13979 10272 16413 1 149.00000 418.400000
15067 10273 16075 1 149.00000 418.400000
15070 10274 16487 1 149.00000 418.400000
11409 10275 15963 1 149.00000 418.400000
15419 10276 17678 1 149.00000 418.400000
15072 10277 15816 1 149.00000 418.400000
15072 10278 15209 1 149.00000 418.400000
15073 10279 16138 1 149.00000 418.400000
15073 10280 16498 1 149.00000 418.400000
15074 10281 15114 1 149.00000 418.400000
15076 10282 15778 1 149.00000 418.400000
15076 10283 15119 1 149.00000 418.400000
15077 10284 16289 1 149.00000 418.400000
12609 10285 16183 1 149.00000 418.400000
15079 10286 22131 1 149.00000 418.400000
15081 10287 16402 1 149.00000 418.400000
15082 10288 16217 1 149.00000 418.400000
15083 10289 15283 1 149.00000 418.400000
11932 10290 12998 1 149.00000 418.400000
15084 10291 15210 1 149.00000 418.400000
15087 10292 16517 1 149.00000 418.400000
15088 10293 15163 1 149.00000 418.400000
15088 10294 16177 1 149.00000 418.400000
15089 10295 15334 1 149.00000 418.400000
14003 10296 21954 1 149.00000 418.400000
15094 10297 16524 1 149.00000 418.400000
15094 10298 16498 1 149.00000 418.400000
15096 10299 16317 1 149.00000 418.400000
15100 10300 15699 1 149.00000 418.400000
15100 10301 15992 1 149.00000 418.400000
15514 10302 15699 1 149.00000 418.400000
15101 10303 16064 1 149.00000 418.400000
15102 10304 15323 1 149.00000 418.400000
15103 10305 16009 1 149.00000 418.400000
16084 10306 21993 1 149.00000 418.400000
17706 10307 21993 1 149.00000 418.400000
15105 10308 16042 1 149.00000 418.400000
15106 10309 16498 1 149.00000 418.400000
15106 10310 16138 1 149.00000 418.400000
15107 10311 15204 1 149.00000 418.400000
15107 10312 22032 1 149.00000 418.400000
15108 10313 16059 1 149.00000 418.400000
15352 10314 17720 1 149.00000 418.400000
14284 10315 15109 1 149.00000 418.400000
15109 10316 15354 1 149.00000 418.400000
15110 10317 16462 1 149.00000 418.400000
15112 10318 16010 1 149.00000 418.400000
15112 10319 15996 1 149.00000 418.400000
15112 10320 15839 1 149.00000 418.400000
15113 10321 15745 1 149.00000 418.400000
15113 10322 15515 1 149.00000 418.400000
15114 10323 15387 1 149.00000 418.400000
15117 10324 15628 1 149.00000 418.400000
15118 10325 15507 1 149.00000 418.400000
15118 10326 15556 1 149.00000 418.400000
15119 10327 15580 1 149.00000 418.400000
15120 10328 15432 1 149.00000 418.400000
17734 10329 22272 1 149.00000 418.400000
16209 10330 17748 1 149.00000 418.400000
15121 10331 15291 1 149.00000 418.400000
12301 10332 15121 1 149.00000 418.400000
15123 10333 15916 1 149.00000 418.400000
15124 10334 15811 1 149.00000 418.400000
15124 10335 15176 1 149.00000 418.400000
15126 10336 15445 1 149.00000 418.400000
15127 10337 15831 1 149.00000 418.400000
15127 10338 15989 1 149.00000 418.400000
15674 10339 16103 1 149.00000 418.400000
15129 10340 15674 1 149.00000 418.400000
15130 10341 15520 1 149.00000 418.400000
15131 10342 15405 1 149.00000 418.400000
15131 10343 16063 1 149.00000 418.400000
15132 10344 16525 1 149.00000 418.400000
15132 10345 15212 1 149.00000 418.400000
15133 10346 16000 1 149.00000 418.400000
15134 10347 16446 1 149.00000 418.400000
15135 10348 15855 1 149.00000 418.400000
15136 10349 15712 1 149.00000 418.400000
15137 10350 16503 1 149.00000 418.400000
15139 10351 16338 1 149.00000 418.400000
15139 10352 15484 1 149.00000 418.400000
15139 10353 16412 1 149.00000 418.400000
15140 10354 16106 1 149.00000 418.400000
15141 10355 22369 1 149.00000 418.400000
16409 10356 20562 1 149.00000 418.400000
15144 10357 16091 1 149.00000 418.400000
15145 10358 15202 1 149.00000 418.400000
15145 10359 16352 1 149.00000 418.400000
15147 10360 16515 1 149.00000 418.400000
15147 10361 15414 1 149.00000 418.400000
15147 10362 15557 1 149.00000 418.400000
15148 10363 16315 1 149.00000 418.400000
15148 10364 15997 1 149.00000 418.400000
15148 10365 15881 1 149.00000 418.400000
15149 10366 16198 1 149.00000 418.400000
15149 10367 15897 1 149.00000 418.400000
15150 10368 16424 1 149.00000 418.400000
15150 10369 15477 1 149.00000 418.400000
13852 10370 15151 1 149.00000 418.400000
15151 10371 22335 1 149.00000 418.400000
15152 10372 15993 1 149.00000 418.400000
15152 10373 15309 1 149.00000 418.400000
15152 10374 16447 1 149.00000 418.400000
15152 10375 16421 1 149.00000 418.400000
15155 10376 15798 1 149.00000 418.400000
15156 10377 16347 1 149.00000 418.400000
15157 10378 16081 1 149.00000 418.400000
15157 10379 16116 1 149.00000 418.400000
15157 10380 15335 1 149.00000 418.400000
15158 10381 15715 1 149.00000 418.400000
15158 10382 15384 1 149.00000 418.400000
15159 10383 15246 1 149.00000 418.400000
15160 10384 15465 1 149.00000 418.400000
15161 10385 22272 1 149.00000 418.400000
15161 10386 16350 1 149.00000 418.400000
15162 10387 16050 1 149.00000 418.400000
15162 10388 15881 1 149.00000 418.400000
15168 10389 16083 1 149.00000 418.400000
15168 10390 15735 1 149.00000 418.400000
15172 10391 16490 1 149.00000 418.400000
15173 10392 15666 1 149.00000 418.400000
15173 10393 16192 1 149.00000 418.400000
15173 10394 16276 1 149.00000 418.400000
15175 10395 15906 1 149.00000 418.400000
15178 10396 15525 1 149.00000 418.400000
16684 10397 17804 1 149.00000 418.400000
15179 10398 15304 1 149.00000 418.400000
15181 10399 15601 1 149.00000 418.400000
15182 10400 15619 1 149.00000 418.400000
13499 10401 16099 1 149.00000 418.400000
15184 10402 16521 1 149.00000 418.400000
15185 10403 15761 1 149.00000 418.400000
15185 10404 15632 1 149.00000 418.400000
15186 10405 15679 1 149.00000 418.400000
14030 10406 15186 1 149.00000 418.400000
14027 10407 15264 1 149.00000 418.400000
15188 10408 15199 1 149.00000 418.400000
15189 10409 17958 1 149.00000 418.400000
15190 10410 15194 1 149.00000 418.400000
15191 10411 16134 1 149.00000 418.400000
15192 10412 15516 1 149.00000 418.400000
15193 10413 22308 1 149.00000 418.400000
13649 10414 15193 1 149.00000 418.400000
15194 10415 16191 1 149.00000 418.400000
15196 10416 15749 1 149.00000 418.400000
15196 10417 15451 1 149.00000 418.400000
15197 10418 15478 1 149.00000 418.400000
15199 10419 16334 1 149.00000 418.400000
15199 10420 16317 1 149.00000 418.400000
15200 10421 15221 1 149.00000 418.400000
11621 10422 16082 1 149.00000 418.400000
15204 10423 15488 1 149.00000 418.400000
15206 10424 16184 1 149.00000 418.400000
15207 10425 22119 1 149.00000 418.400000
15208 10426 15806 1 149.00000 418.400000
15210 10427 15943 1 149.00000 418.400000
15211 10428 15279 1 149.00000 418.400000
15211 10429 16127 1 149.00000 418.400000
15212 10430 15389 1 149.00000 418.400000
15212 10431 15466 1 149.00000 418.400000
15213 10432 15402 1 149.00000 418.400000
15218 10433 18182 1 149.00000 418.400000
15220 10434 15935 1 149.00000 418.400000
15973 10435 21978 1 149.00000 418.400000
16366 10436 21978 1 149.00000 418.400000
15224 10437 15719 1 149.00000 418.400000
15224 10438 15244 1 149.00000 418.400000
15224 10439 22173 1 149.00000 418.400000
15224 10440 18042 1 149.00000 418.400000
21981 10441 22113 1 149.00000 418.400000
16007 10442 21981 1 149.00000 418.400000
15225 10443 15824 1 149.00000 418.400000
15226 10444 15916 1 149.00000 418.400000
15226 10445 16199 1 149.00000 418.400000
15227 10446 16382 1 149.00000 418.400000
15228 10447 15306 1 149.00000 418.400000
15229 10448 15625 1 149.00000 418.400000
15230 10449 16478 1 149.00000 418.400000
15230 10450 15593 1 149.00000 418.400000
15231 10451 15287 1 149.00000 418.400000
15231 10452 16031 1 149.00000 418.400000
15231 10453 15802 1 149.00000 418.400000
15233 10454 16394 1 149.00000 418.400000
15233 10455 16404 1 149.00000 418.400000
15235 10456 15845 1 149.00000 418.400000
15236 10457 22197 1 149.00000 418.400000
15237 10458 16006 1 149.00000 418.400000
14311 10459 15722 1 149.00000 418.400000
15238 10460 15925 1 149.00000 418.400000
15603 10461 21984 1 149.00000 418.400000
16019 10462 21984 1 149.00000 418.400000
18378 10463 21987 1 149.00000 418.400000
15240 10464 15736 1 149.00000 418.400000
15242 10465 16463 1 149.00000 418.400000
15243 10466 15975 1 149.00000 418.400000
14672 10467 15243 1 149.00000 418.400000
12344 10468 15244 1 149.00000 418.400000
15245 10469 15941 1 149.00000 418.400000
15247 10470 15689 1 149.00000 418.400000
12959 10471 15248 1 149.00000 418.400000
15248 10472 15633 1 149.00000 418.400000
15249 10473 16047 1 149.00000 418.400000
15249 10474 15585 1 149.00000 418.400000
15250 10475 15853 1 149.00000 418.400000
15251 10476 15450 1 149.00000 418.400000
15253 10477 15431 1 149.00000 418.400000
15255 10478 15367 1 149.00000 418.400000
15256 10479 15646 1 149.00000 418.400000
13355 10480 15260 1 149.00000 418.400000
15260 10481 16157 1 149.00000 418.400000
15261 10482 15312 1 149.00000 418.400000
15262 10483 16012 1 149.00000 418.400000
15263 10484 15967 1 149.00000 418.400000
15264 10485 15408 1 149.00000 418.400000
15265 10486 15334 1 149.00000 418.400000
15267 10487 15809 1 149.00000 418.400000
15267 10488 22185 1 149.00000 418.400000
14006 10489 15268 1 149.00000 418.400000
15268 10490 16008 1 149.00000 418.400000
15269 10491 15665 1 149.00000 418.400000
12437 10492 21990 1 149.00000 418.400000
15271 10493 15825 1 149.00000 418.400000
15274 10494 15895 1 149.00000 418.400000
15275 10495 16041 1 149.00000 418.400000
11968 10496 15276 1 149.00000 418.400000
15277 10497 16430 1 149.00000 418.400000
15278 10498 16012 1 149.00000 418.400000
15279 10499 15650 1 149.00000 418.400000
15280 10500 22131 1 149.00000 418.400000
15282 10501 16100 1 149.00000 418.400000
15286 10502 16195 1 149.00000 418.400000
15286 10503 16398 1 149.00000 418.400000
15288 10504 15818 1 149.00000 418.400000
15289 10505 16107 1 149.00000 418.400000
15289 10506 15345 1 149.00000 418.400000
15290 10507 15515 1 149.00000 418.400000
15292 10508 15366 1 149.00000 418.400000
15294 10509 16360 1 149.00000 418.400000
15294 10510 16353 1 149.00000 418.400000
15294 10511 15473 1 149.00000 418.400000
15296 10512 16264 1 149.00000 418.400000
13649 10513 22005 1 149.00000 418.400000
21612 10514 22005 1 149.00000 418.400000
15298 10515 15362 1 149.00000 418.400000
15298 10516 15325 1 149.00000 418.400000
15299 10517 15561 1 149.00000 418.400000
12570 10518 13297 1 149.00000 418.400000
15301 10519 15384 1 149.00000 418.400000
15302 10520 16016 1 149.00000 418.400000
14647 10521 15620 1 149.00000 418.400000
15304 10522 15433 1 149.00000 418.400000
15304 10523 15975 1 149.00000 418.400000
15306 10524 16114 1 149.00000 418.400000
15306 10525 16288 1 149.00000 418.400000
15307 10526 15392 1 149.00000 418.400000
15309 10527 15852 1 149.00000 418.400000
15310 10528 16136 1 149.00000 418.400000
15312 10529 16073 1 149.00000 418.400000
15313 10530 15365 1 149.00000 418.400000
12608 10531 15923 1 149.00000 418.400000
12608 10532 15788 1 149.00000 418.400000
15316 10533 16212 1 149.00000 418.400000
15317 10534 15718 1 149.00000 418.400000
15317 10535 15959 1 149.00000 418.400000
15318 10536 22227 1 149.00000 418.400000
15319 10537 16352 1 149.00000 418.400000
15320 10538 15425 1 149.00000 418.400000
15321 10539 15715 1 149.00000 418.400000
15322 10540 15427 1 149.00000 418.400000
15323 10541 15631 1 149.00000 418.400000
15323 10542 16286 1 149.00000 418.400000
15324 10543 15974 1 149.00000 418.400000
15325 10544 16118 1 149.00000 418.400000
15326 10545 22449 1 149.00000 418.400000
15327 10546 15648 1 149.00000 418.400000
15327 10547 15609 1 149.00000 418.400000
15328 10548 16398 1 149.00000 418.400000
15603 10549 17888 1 149.00000 418.400000
15329 10550 22429 1 149.00000 418.400000
15329 10551 22134 1 149.00000 418.400000
15329 10552 15415 1 149.00000 418.400000
15331 10553 16078 1 149.00000 418.400000
15332 10554 16460 1 149.00000 418.400000
15332 10555 22347 1 149.00000 418.400000
15333 10556 16295 1 149.00000 418.400000
15333 10557 16250 1 149.00000 418.400000
15333 10558 15342 1 149.00000 418.400000
15335 10559 16458 1 149.00000 418.400000
22011 10560 22056 1 149.00000 418.400000
16112 10561 22011 1 149.00000 418.400000
15336 10562 16210 1 149.00000 418.400000
15336 10563 15966 1 149.00000 418.400000
15336 10564 15682 1 149.00000 418.400000
15337 10565 15870 1 149.00000 418.400000
15338 10566 15370 1 149.00000 418.400000
18280 10567 22014 1 149.00000 418.400000
15339 10568 16165 1 149.00000 418.400000
15340 10569 22251 1 149.00000 418.400000
15340 10570 15801 1 149.00000 418.400000
15341 10571 15492 1 149.00000 418.400000
16212 10572 22020 1 149.00000 418.400000
15344 10573 16504 1 149.00000 418.400000
15345 10574 16195 1 149.00000 418.400000
15346 10575 15734 1 149.00000 418.400000
12831 10576 15346 1 149.00000 418.400000
15346 10577 16243 1 149.00000 418.400000
15348 10578 15588 1 149.00000 418.400000
15350 10579 16379 1 149.00000 418.400000
15350 10580 16219 1 149.00000 418.400000
15780 10581 22023 1 149.00000 418.400000
22023 10582 22317 1 149.00000 418.400000
15352 10583 16195 1 149.00000 418.400000
15353 10584 15581 1 149.00000 418.400000
15353 10585 15381 1 149.00000 418.400000
15354 10586 15430 1 149.00000 418.400000
15355 10587 22394 1 149.00000 418.400000
15356 10588 15653 1 149.00000 418.400000
15359 10589 16216 1 149.00000 418.400000
15360 10590 16452 1 149.00000 418.400000
15362 10591 15379 1 149.00000 418.400000
15891 10592 22029 1 149.00000 418.400000
16423 10593 22029 1 149.00000 418.400000
15363 10594 16083 1 149.00000 418.400000
15364 10595 16158 1 149.00000 418.400000
15365 10596 16397 1 149.00000 418.400000
15366 10597 15779 1 149.00000 418.400000
15367 10598 15529 1 149.00000 418.400000
15368 10599 15946 1 149.00000 418.400000
15369 10600 16450 1 149.00000 418.400000
15369 10601 16355 1 149.00000 418.400000
15372 10602 16435 1 149.00000 418.400000
15373 10603 22299 1 149.00000 418.400000
15373 10604 15423 1 149.00000 418.400000
15374 10605 15616 1 149.00000 418.400000
15375 10606 16422 1 149.00000 418.400000
16007 10607 22035 1 149.00000 418.400000
15378 10608 16123 1 149.00000 418.400000
15378 10609 16275 1 149.00000 418.400000
15379 10610 16283 1 149.00000 418.400000
15379 10611 15968 1 149.00000 418.400000
15381 10612 15938 1 149.00000 418.400000
15381 10613 16063 1 149.00000 418.400000
15383 10614 16448 1 149.00000 418.400000
15385 10615 16231 1 149.00000 418.400000
15387 10616 15541 1 149.00000 418.400000
15388 10617 15769 1 149.00000 418.400000
15388 10618 15544 1 149.00000 418.400000
15389 10619 16067 1 149.00000 418.400000
15393 10620 16185 1 149.00000 418.400000
15393 10621 15555 1 149.00000 418.400000
15394 10622 15924 1 149.00000 418.400000
15395 10623 16258 1 149.00000 418.400000
15395 10624 16342 1 149.00000 418.400000
13389 10625 15618 1 149.00000 418.400000
16477 10626 22044 1 149.00000 418.400000
15396 10627 15405 1 149.00000 418.400000
12800 10628 16259 1 149.00000 418.400000
15397 10629 15797 1 149.00000 418.400000
15397 10630 16097 1 149.00000 418.400000
15398 10631 15868 1 149.00000 418.400000
15402 10632 22353 1 149.00000 418.400000
15403 10633 15530 1 149.00000 418.400000
15405 10634 15538 1 149.00000 418.400000
15407 10635 15936 1 149.00000 418.400000
15407 10636 15823 1 149.00000 418.400000
15409 10637 16224 1 149.00000 418.400000
14037 10638 15410 1 149.00000 418.400000
15411 10639 16347 1 149.00000 418.400000
15411 10640 15860 1 149.00000 418.400000
15411 10641 15920 1 149.00000 418.400000
15411 10642 16110 1 149.00000 418.400000
15412 10643 15922 1 149.00000 418.400000
15413 10644 15739 1 149.00000 418.400000
15416 10645 16075 1 149.00000 418.400000
15416 10646 16213 1 149.00000 418.400000
15395 10647 15417 1 149.00000 418.400000
15418 10648 15436 1 149.00000 418.400000
15419 10649 19062 1 149.00000 418.400000
15420 10650 16239 1 149.00000 418.400000
15421 10651 16312 1 149.00000 418.400000
15421 10652 15504 1 149.00000 418.400000
15422 10653 16168 1 149.00000 418.400000
15423 10654 15518 1 149.00000 418.400000
15424 10655 16013 1 149.00000 418.400000
15424 10656 15937 1 149.00000 418.400000
15424 10657 15809 1 149.00000 418.400000
15425 10658 15692 1 149.00000 418.400000
15428 10659 15481 1 149.00000 418.400000
15429 10660 16077 1 149.00000 418.400000
15157 10661 15429 1 149.00000 418.400000
15430 10662 15924 1 149.00000 418.400000
15431 10663 15925 1 149.00000 418.400000
15432 10664 15500 1 149.00000 418.400000
15433 10665 15554 1 149.00000 418.400000
15435 10666 15543 1 149.00000 418.400000
15437 10667 15632 1 149.00000 418.400000
15439 10668 15452 1 149.00000 418.400000
15441 10669 15910 1 149.00000 418.400000
15441 10670 22329 1 149.00000 418.400000
15441 10671 22221 1 149.00000 418.400000
14915 10672 15442 1 149.00000 418.400000
15447 10673 15758 1 149.00000 418.400000
15448 10674 22110 1 149.00000 418.400000
15449 10675 15528 1 149.00000 418.400000
12085 10676 15900 1 149.00000 418.400000
14145 10677 15451 1 149.00000 418.400000
22053 10678 22215 1 149.00000 418.400000
16034 10679 22053 1 149.00000 418.400000
14666 10680 16344 1 149.00000 418.400000
12831 10681 15826 1 149.00000 418.400000
15455 10682 16117 1 149.00000 418.400000
15456 10683 15836 1 149.00000 418.400000
15457 10684 16266 1 149.00000 418.400000
16038 10685 22062 1 149.00000 418.400000
22062 10686 22209 1 149.00000 418.400000
15459 10687 15787 1 149.00000 418.400000
15460 10688 16481 1 149.00000 418.400000
15460 10689 16467 1 149.00000 418.400000
15460 10690 15570 1 149.00000 418.400000
15461 10691 16166 1 149.00000 418.400000
15462 10692 15912 1 149.00000 418.400000
15462 10693 16021 1 149.00000 418.400000
15898 10694 17958 1 149.00000 418.400000
15464 10695 16440 1 149.00000 418.400000
15465 10696 16169 1 149.00000 418.400000
15469 10697 15988 1 149.00000 418.400000
15004 10698 15722 1 149.00000 418.400000
15472 10699 16356 1 149.00000 418.400000
15472 10700 16106 1 149.00000 418.400000
15675 10701 17986 1 149.00000 418.400000
15475 10702 16069 1 149.00000 418.400000
15481 10703 16424 1 149.00000 418.400000
13485 10704 15483 1 149.00000 418.400000
22065 10705 22179 1 149.00000 418.400000
15485 10706 16286 1 149.00000 418.400000
15486 10707 16281 1 149.00000 418.400000
15486 10708 15686 1 149.00000 418.400000
15487 10709 16364 1 149.00000 418.400000
15489 10710 15680 1 149.00000 418.400000
15489 10711 22326 1 149.00000 418.400000
15491 10712 15799 1 149.00000 418.400000
15491 10713 16453 1 149.00000 418.400000
15493 10714 15777 1 149.00000 418.400000
15493 10715 15835 1 149.00000 418.400000
15495 10716 16239 1 149.00000 418.400000
15496 10717 16128 1 149.00000 418.400000
15497 10718 15733 1 149.00000 418.400000
15499 10719 16187 1 149.00000 418.400000
15500 10720 15649 1 149.00000 418.400000
15501 10721 16059 1 149.00000 418.400000
15506 10722 16098 1 149.00000 418.400000
15506 10723 15555 1 149.00000 418.400000
15510 10724 15916 1 149.00000 418.400000
15510 10725 15631 1 149.00000 418.400000
15512 10726 16179 1 149.00000 418.400000
14066 10727 15930 1 149.00000 418.400000
15513 10728 16043 1 149.00000 418.400000
15516 10729 15877 1 149.00000 418.400000
15518 10730 15995 1 149.00000 418.400000
15519 10731 15681 1 149.00000 418.400000
15520 10732 15813 1 149.00000 418.400000
15521 10733 16382 1 149.00000 418.400000
15521 10734 16331 1 149.00000 418.400000
15522 10735 15947 1 149.00000 418.400000
15892 10736 22071 1 149.00000 418.400000
14458 10737 15816 1 149.00000 418.400000
15523 10738 15928 1 149.00000 418.400000
15524 10739 15986 1 149.00000 418.400000
15527 10740 15591 1 149.00000 418.400000
15243 10741 15528 1 149.00000 418.400000
16422 10742 22074 1 149.00000 418.400000
16464 10743 22074 1 149.00000 418.400000
15879 10744 22077 1 149.00000 418.400000
15530 10745 16069 1 149.00000 418.400000
15530 10746 16059 1 149.00000 418.400000
22080 10747 22290 1 149.00000 418.400000
15531 10748 16498 1 149.00000 418.400000
15532 10749 15722 1 149.00000 418.400000
15533 10750 15552 1 149.00000 418.400000
15536 10751 16018 1 149.00000 418.400000
15539 10752 15586 1 149.00000 418.400000
15540 10753 15714 1 149.00000 418.400000
15540 10754 16232 1 149.00000 418.400000
14364 10755 15546 1 149.00000 418.400000
15991 10756 22086 1 149.00000 418.400000
16456 10757 22086 1 149.00000 418.400000
15969 10758 22089 1 149.00000 418.400000
15549 10759 22182 1 149.00000 418.400000
15551 10760 16082 1 149.00000 418.400000
15552 10761 16055 1 149.00000 418.400000
15553 10762 16206 1 149.00000 418.400000
15555 10763 15890 1 149.00000 418.400000
15559 10764 22269 1 149.00000 418.400000
15559 10765 15574 1 149.00000 418.400000
15559 10766 22293 1 149.00000 418.400000
15560 10767 15562 1 149.00000 418.400000
15561 10768 15717 1 149.00000 418.400000
15562 10769 15893 1 149.00000 418.400000
15564 10770 16013 1 149.00000 418.400000
15565 10771 15716 1 149.00000 418.400000
15566 10772 15744 1 149.00000 418.400000
15567 10773 15679 1 149.00000 418.400000
15568 10774 15720 1 149.00000 418.400000
15569 10775 15915 1 149.00000 418.400000
15570 10776 16319 1 149.00000 418.400000
15570 10777 16054 1 149.00000 418.400000
15572 10778 16073 1 149.00000 418.400000
15573 10779 15761 1 149.00000 418.400000
15573 10780 15906 1 149.00000 418.400000
15577 10781 16438 1 149.00000 418.400000
15580 10782 15589 1 149.00000 418.400000
15580 10783 15596 1 149.00000 418.400000
15583 10784 22424 1 149.00000 418.400000
15586 10785 15663 1 149.00000 418.400000
15586 10786 22464 1 149.00000 418.400000
15589 10787 15668 1 149.00000 418.400000
15594 10788 16298 1 149.00000 418.400000
15596 10789 16402 1 149.00000 418.400000
15597 10790 22275 1 149.00000 418.400000
15598 10791 16217 1 149.00000 418.400000
15599 10792 16395 1 149.00000 418.400000
13878 10793 15599 1 149.00000 418.400000
15600 10794 16068 1 149.00000 418.400000
16205 10795 18070 1 149.00000 418.400000
15601 10796 16360 1 149.00000 418.400000
15602 10797 15781 1 149.00000 418.400000
15602 10798 16124 1 149.00000 418.400000
15604 10799 16072 1 149.00000 418.400000
15607 10800 16521 1 149.00000 418.400000
15607 10801 15819 1 149.00000 418.400000
22104 10802 22125 1 149.00000 418.400000
15612 10803 16105 1 149.00000 418.400000
16485 10804 22107 1 149.00000 418.400000
15613 10805 16445 1 149.00000 418.400000
15615 10806 15878 1 149.00000 418.400000
15618 10807 16145 1 149.00000 418.400000
15619 10808 22439 1 149.00000 418.400000
15620 10809 16358 1 149.00000 418.400000
15620 10810 16047 1 149.00000 418.400000
15623 10811 15848 1 149.00000 418.400000
15625 10812 16387 1 149.00000 418.400000
15629 10813 22122 1 149.00000 418.400000
15791 10814 22113 1 149.00000 418.400000
15634 10815 18182 1 149.00000 418.400000
15635 10816 15931 1 149.00000 418.400000
15637 10817 16451 1 149.00000 418.400000
15637 10818 16206 1 149.00000 418.400000
14633 10819 15639 1 149.00000 418.400000
15641 10820 15943 1 149.00000 418.400000
22116 10821 22409 1 149.00000 418.400000
15206 10822 22116 1 149.00000 418.400000
15645 10823 16189 1 149.00000 418.400000
15645 10824 15879 1 149.00000 418.400000
15646 10825 15864 1 149.00000 418.400000
15647 10826 16062 1 149.00000 418.400000
16391 10827 22122 1 149.00000 418.400000
15724 10828 22125 1 149.00000 418.400000
15656 10829 18308 1 149.00000 418.400000
15659 10830 16470 1 149.00000 418.400000
15662 10831 16019 1 149.00000 418.400000
15663 10832 15775 1 149.00000 418.400000
15665 10833 16271 1 149.00000 418.400000
15667 10834 15814 1 149.00000 418.400000
11816 10835 15667 1 149.00000 418.400000
15669 10836 21978 1 149.00000 418.400000
15669 10837 16459 1 149.00000 418.400000
15670 10838 15927 1 149.00000 418.400000
13506 10839 15685 1 149.00000 418.400000
15672 10840 16144 1 149.00000 418.400000
15672 10841 22236 1 149.00000 418.400000
15673 10842 15870 1 149.00000 418.400000
12959 10843 15673 1 149.00000 418.400000
15676 10844 16281 1 149.00000 418.400000
15677 10845 16230 1 149.00000 418.400000
15677 10846 16163 1 149.00000 418.400000
15678 10847 16376 1 149.00000 418.400000
15680 10848 16383 1 149.00000 418.400000
15683 10849 16440 1 149.00000 418.400000
15688 10850 16354 1 149.00000 418.400000
15688 10851 16185 1 149.00000 418.400000
15692 10852 22359 1 149.00000 418.400000
15693 10853 16467 1 149.00000 418.400000
15694 10854 15756 1 149.00000 418.400000
15695 10855 15760 1 149.00000 418.400000
15697 10856 16020 1 149.00000 418.400000
15697 10857 15853 1 149.00000 418.400000
16134 10858 22143 1 149.00000 418.400000
15698 10859 15701 1 149.00000 418.400000
15699 10860 15854 1 149.00000 418.400000
15699 10861 16132 1 149.00000 418.400000
14101 10862 15702 1 149.00000 418.400000
15705 10863 15826 1 149.00000 418.400000
13557 10864 22152 1 149.00000 418.400000
15709 10865 15754 1 149.00000 418.400000
22149 10866 22224 1 149.00000 418.400000
15768 10867 22152 1 149.00000 418.400000
15752 10868 18168 1 149.00000 418.400000
16494 10869 18168 1 149.00000 418.400000
15712 10870 15753 1 149.00000 418.400000
15718 10871 16005 1 149.00000 418.400000
13659 10872 16317 1 149.00000 418.400000
15719 10873 16464 1 149.00000 418.400000
15719 10874 15905 1 149.00000 418.400000
15720 10875 15833 1 149.00000 418.400000
15721 10876 15787 1 149.00000 418.400000
15532 10877 16215 1 149.00000 418.400000
15726 10878 15830 1 149.00000 418.400000
15726 10879 16031 1 149.00000 418.400000
15727 10880 16447 1 149.00000 418.400000
15728 10881 16496 1 149.00000 418.400000
15731 10882 15738 1 149.00000 418.400000
15732 10883 16026 1 149.00000 418.400000
14109 10884 15773 1 149.00000 418.400000
15732 10885 16050 1 149.00000 418.400000
15733 10886 16495 1 149.00000 418.400000
16379 10887 21783 1 149.00000 418.400000
15739 10888 16428 1 149.00000 418.400000
15740 10889 15771 1 149.00000 418.400000
15741 10890 16028 1 149.00000 418.400000
16297 10891 22167 1 149.00000 418.400000
15743 10892 16276 1 149.00000 418.400000
15743 10893 16016 1 149.00000 418.400000
15743 10894 16449 1 149.00000 418.400000
15744 10895 16132 1 149.00000 418.400000
15747 10896 16500 1 149.00000 418.400000
15751 10897 16373 1 149.00000 418.400000
15753 10898 16193 1 149.00000 418.400000
15753 10899 16393 1 149.00000 418.400000
15754 10900 15856 1 149.00000 418.400000
15694 10901 16214 1 149.00000 418.400000
18546 10902 22251 1 149.00000 418.400000
15760 10903 15786 1 149.00000 418.400000
15762 10904 16143 1 149.00000 418.400000
15762 10905 15977 1 149.00000 418.400000
15763 10906 22248 1 149.00000 418.400000
15764 10907 16350 1 149.00000 418.400000
15765 10908 15802 1 149.00000 418.400000
15767 10909 16386 1 149.00000 418.400000
15767 10910 16278 1 149.00000 418.400000
22173 10911 22188 1 149.00000 418.400000
15768 10912 16478 1 149.00000 418.400000
12158 10913 16162 1 149.00000 418.400000
15771 10914 16313 1 149.00000 418.400000
15774 10915 15998 1 149.00000 418.400000
15775 10916 22245 1 149.00000 418.400000
11952 10917 15776 1 149.00000 418.400000
15779 10918 16148 1 149.00000 418.400000
15785 10919 15894 1 149.00000 418.400000
14384 10920 16162 1 149.00000 418.400000
15789 10921 16369 1 149.00000 418.400000
15789 10922 16233 1 149.00000 418.400000
18406 10923 22179 1 149.00000 418.400000
15794 10924 16055 1 149.00000 418.400000
15798 10925 15970 1 149.00000 418.400000
15801 10926 15960 1 149.00000 418.400000
15802 10927 15982 1 149.00000 418.400000
15803 10928 15960 1 149.00000 418.400000
15803 10929 16337 1 149.00000 418.400000
15804 10930 15986 1 149.00000 418.400000
15811 10931 16420 1 149.00000 418.400000
15815 10932 16287 1 149.00000 418.400000
15818 10933 16121 1 149.00000 418.400000
15821 10934 16509 1 149.00000 418.400000
15826 10935 16149 1 149.00000 418.400000
15835 10936 15993 1 149.00000 418.400000
15837 10937 16179 1 149.00000 418.400000
15838 10938 16384 1 149.00000 418.400000
15841 10939 16499 1 149.00000 418.400000
18294 10940 22218 1 149.00000 418.400000
15842 10941 16186 1 149.00000 418.400000
16280 10942 22197 1 149.00000 418.400000
15846 10943 16123 1 149.00000 418.400000
13938 10944 15846 1 149.00000 418.400000
15848 10945 22338 1 149.00000 418.400000
15849 10946 16046 1 149.00000 418.400000
15850 10947 16511 1 149.00000 418.400000
15851 10948 16123 1 149.00000 418.400000
18322 10949 22203 1 149.00000 418.400000
15972 10950 22203 1 149.00000 418.400000
15854 10951 15918 1 149.00000 418.400000
15854 10952 15988 1 149.00000 418.400000
15855 10953 16435 1 149.00000 418.400000
15858 10954 16263 1 149.00000 418.400000
15859 10955 15967 1 149.00000 418.400000
15861 10956 15907 1 149.00000 418.400000
18308 10957 22454 1 149.00000 418.400000
15869 10958 16045 1 149.00000 418.400000
15871 10959 16446 1 149.00000 418.400000
15871 10960 16337 1 149.00000 418.400000
15871 10961 16500 1 149.00000 418.400000
15872 10962 15961 1 149.00000 418.400000
15874 10963 16055 1 149.00000 418.400000
15896 10964 22215 1 149.00000 418.400000
16340 10965 22215 1 149.00000 418.400000
15875 10966 15998 1 149.00000 418.400000
15877 10967 16234 1 149.00000 418.400000
15878 10968 16130 1 149.00000 418.400000
15879 10969 15971 1 149.00000 418.400000
15880 10970 15932 1 149.00000 418.400000
15881 10971 16038 1 149.00000 418.400000
15882 10972 16301 1 149.00000 418.400000
15885 10973 16343 1 149.00000 418.400000
11879 10974 16247 1 149.00000 418.400000
15888 10975 16132 1 149.00000 418.400000
15891 10976 16113 1 149.00000 418.400000
15894 10977 15945 1 149.00000 418.400000
15894 10978 16360 1 149.00000 418.400000
15895 10979 16206 1 149.00000 418.400000
15983 10980 16240 1 149.00000 418.400000
15896 10981 16240 1 149.00000 418.400000
15897 10982 15913 1 149.00000 418.400000
15901 10983 16216 1 149.00000 418.400000
15901 10984 16335 1 149.00000 418.400000
15901 10985 16420 1 149.00000 418.400000
15902 10986 16293 1 149.00000 418.400000
15906 10987 16147 1 149.00000 418.400000
16464 10988 22221 1 149.00000 418.400000
15907 10989 16384 1 149.00000 418.400000
15911 10990 16225 1 149.00000 418.400000
15914 10991 16423 1 149.00000 418.400000
15925 10992 16264 1 149.00000 418.400000
15928 10993 16414 1 149.00000 418.400000
15930 10994 16143 1 149.00000 418.400000
22230 10995 22239 1 149.00000 418.400000
15940 10996 16523 1 149.00000 418.400000
15941 10997 16234 1 149.00000 418.400000
11774 10998 15947 1 149.00000 418.400000
15949 10999 16022 1 149.00000 418.400000
15949 11000 16140 1 149.00000 418.400000
15950 11001 16285 1 149.00000 418.400000
15950 11002 16215 1 149.00000 418.400000
15952 11003 16060 1 149.00000 418.400000
15952 11004 16030 1 149.00000 418.400000
15959 11005 16318 1 149.00000 418.400000
14188 11006 16095 1 149.00000 418.400000
15965 11007 16403 1 149.00000 418.400000
15965 11008 16086 1 149.00000 418.400000
15968 11009 16139 1 149.00000 418.400000
15975 11010 16336 1 149.00000 418.400000
15978 11011 16225 1 149.00000 418.400000
15981 11012 16017 1 149.00000 418.400000
15982 11013 16329 1 149.00000 418.400000
15983 11014 22278 1 149.00000 418.400000
15984 11015 16504 1 149.00000 418.400000
15985 11016 16467 1 149.00000 418.400000
15804 11017 16374 1 149.00000 418.400000
15987 11018 16357 1 149.00000 418.400000
15987 11019 16493 1 149.00000 418.400000
15995 11020 16083 1 149.00000 418.400000
16083 11021 16268 1 149.00000 418.400000
15016 11022 15996 1 149.00000 418.400000
15997 11023 16082 1 149.00000 418.400000
16003 11024 16457 1 149.00000 418.400000
16003 11025 16170 1 149.00000 418.400000
16004 11026 16293 1 149.00000 418.400000
16008 11027 16281 1 149.00000 418.400000
16010 11028 16136 1 149.00000 418.400000
16011 11029 22320 1 149.00000 418.400000
16011 11030 16289 1 149.00000 418.400000
16012 11031 16376 1 149.00000 418.400000
22242 11032 22419 1 149.00000 418.400000
16017 11033 16507 1 149.00000 418.400000
16025 11034 16228 1 149.00000 418.400000
16031 11035 16148 1 149.00000 418.400000
16033 11036 16513 1 149.00000 418.400000
16035 11037 16094 1 149.00000 418.400000
16037 11038 16093 1 149.00000 418.400000
16045 11039 16456 1 149.00000 418.400000
13117 11040 16052 1 149.00000 418.400000
16056 11041 16241 1 149.00000 418.400000
16056 11042 16274 1 149.00000 418.400000
16061 11043 16462 1 149.00000 418.400000
18434 11044 22326 1 149.00000 418.400000
16064 11045 16170 1 149.00000 418.400000
16067 11046 16273 1 149.00000 418.400000
16067 11047 16453 1 149.00000 418.400000
16069 11048 16390 1 149.00000 418.400000
16070 11049 22314 1 149.00000 418.400000
16072 11050 16122 1 149.00000 418.400000
16078 11051 16189 1 149.00000 418.400000
16084 11052 16139 1 149.00000 418.400000
16085 11053 16344 1 149.00000 418.400000
14618 11054 16347 1 149.00000 418.400000
14618 11055 16330 1 149.00000 418.400000
16089 11056 16438 1 149.00000 418.400000
16097 11057 16208 1 149.00000 418.400000
16099 11058 16448 1 149.00000 418.400000
16101 11059 16487 1 149.00000 418.400000
16102 11060 16292 1 149.00000 418.400000
16102 11061 16194 1 149.00000 418.400000
12134 11062 22364 1 149.00000 418.400000
16104 11063 16298 1 149.00000 418.400000
16109 11064 16432 1 149.00000 418.400000
16111 11065 16355 1 149.00000 418.400000
16113 11066 16384 1 149.00000 418.400000
12726 11067 16286 1 149.00000 418.400000
16116 11068 16482 1 149.00000 418.400000
16118 11069 16303 1 149.00000 418.400000
16119 11070 16314 1 149.00000 418.400000
16120 11071 16151 1 149.00000 418.400000
15978 11072 16121 1 149.00000 418.400000
16121 11073 16261 1 149.00000 418.400000
16126 11074 16253 1 149.00000 418.400000
16134 11075 22254 1 149.00000 418.400000
16133 11076 16331 1 149.00000 418.400000
16141 11077 16156 1 149.00000 418.400000
12044 11078 22263 1 149.00000 418.400000
16151 11079 16399 1 149.00000 418.400000
16151 11080 16159 1 149.00000 418.400000
16154 11081 22293 1 149.00000 418.400000
16158 11082 16358 1 149.00000 418.400000
16164 11083 16264 1 149.00000 418.400000
16172 11084 16400 1 149.00000 418.400000
16174 11085 16417 1 149.00000 418.400000
16178 11086 16219 1 149.00000 418.400000
16180 11087 16341 1 149.00000 418.400000
16185 11088 16492 1 149.00000 418.400000
16187 11089 16418 1 149.00000 418.400000
12744 11090 16187 1 149.00000 418.400000
16188 11091 16430 1 149.00000 418.400000
16287 11092 22379 1 149.00000 418.400000
16196 11093 16304 1 149.00000 418.400000
16210 11094 16442 1 149.00000 418.400000
16218 11095 16379 1 149.00000 418.400000
16223 11096 16394 1 149.00000 418.400000
16379 11097 22399 1 149.00000 418.400000
16236 11098 16268 1 149.00000 418.400000
16248 11099 16507 1 149.00000 418.400000
16249 11100 16383 1 149.00000 418.400000
16251 11101 16429 1 149.00000 418.400000
16251 11102 16311 1 149.00000 418.400000
16252 11103 16282 1 149.00000 418.400000
16253 11104 16270 1 149.00000 418.400000
16255 11105 16494 1 149.00000 418.400000
16256 11106 16291 1 149.00000 418.400000
16258 11107 16266 1 149.00000 418.400000
16265 11108 16453 1 149.00000 418.400000
16272 11109 16326 1 149.00000 418.400000
16274 11110 16306 1 149.00000 418.400000
16281 11111 16461 1 149.00000 418.400000
16286 11112 16484 1 149.00000 418.400000
16287 11113 16382 1 149.00000 418.400000
16288 11114 16378 1 149.00000 418.400000
16296 11115 16347 1 149.00000 418.400000
16466 11116 22314 1 149.00000 418.400000
16300 11117 16471 1 149.00000 418.400000
16305 11118 16489 1 149.00000 418.400000
16310 11119 16522 1 149.00000 418.400000
16311 11120 16416 1 149.00000 418.400000
16314 11121 16441 1 149.00000 418.400000
16330 11122 16412 1 149.00000 418.400000
16333 11123 16396 1 149.00000 418.400000
16346 11124 16429 1 149.00000 418.400000
16422 11125 22332 1 149.00000 418.400000
16366 11126 16410 1 149.00000 418.400000
16370 11127 16388 1 149.00000 418.400000
16372 11128 16465 1 149.00000 418.400000
16374 11129 16407 1 149.00000 418.400000
16381 11130 16400 1 149.00000 418.400000
16391 11131 16501 1 149.00000 418.400000
16402 11132 16501 1 149.00000 418.400000
16421 11133 16480 1 149.00000 418.400000
16432 11134 16509 1 149.00000 418.400000
16434 11135 16493 1 149.00000 418.400000
16463 11136 16519 1 149.00000 418.400000
16468 11137 22469 1 149.00000 418.400000
11359 11138 12058 1 149.00000 418.400000
11359 11139 11373 1 149.00000 418.400000
16319 11140 18462 1 149.00000 418.400000
11392 11141 15362 1 149.00000 418.400000
11407 11142 15597 1 149.00000 418.400000
11410 11143 12241 1 149.00000 418.400000
11447 11144 14890 1 149.00000 418.400000
11459 11145 16479 1 149.00000 418.400000
11462 11146 14097 1 149.00000 418.400000
11465 11147 15269 1 149.00000 418.400000
11469 11148 13141 1 149.00000 418.400000
11499 11149 12836 1 149.00000 418.400000
11537 11150 13837 1 149.00000 418.400000
11558 11151 13465 1 149.00000 418.400000
11569 11152 12435 1 149.00000 418.400000
16462 11153 18498 1 149.00000 418.400000
11493 11154 11661 1 149.00000 418.400000
11669 11155 14737 1 149.00000 418.400000
11707 11156 12667 1 149.00000 418.400000
11726 11157 12115 1 149.00000 418.400000
11735 11158 14732 1 149.00000 418.400000
11737 11159 13074 1 149.00000 418.400000
11743 11160 14949 1 149.00000 418.400000
11745 11161 14554 1 149.00000 418.400000
11469 11162 11762 1 149.00000 418.400000
11791 11163 15914 1 149.00000 418.400000
14663 11164 18534 1 149.00000 418.400000
11809 11165 14214 1 149.00000 418.400000
11817 11166 14241 1 149.00000 418.400000
11344 11167 18594 1 149.00000 418.400000
15991 11168 18630 1 149.00000 418.400000
13077 11169 18666 1 149.00000 418.400000
11582 11170 18714 1 149.00000 418.400000
11910 11171 15012 1 149.00000 418.400000
11745 11172 18738 1 149.00000 418.400000
14844 11173 18786 1 149.00000 418.400000
12880 11174 18798 1 149.00000 418.400000
13911 11175 18834 1 149.00000 418.400000
13716 11176 18858 1 149.00000 418.400000
12668 11177 18870 1 149.00000 418.400000
13356 11178 18918 1 149.00000 418.400000
15193 11179 18930 1 149.00000 418.400000
12125 11180 18966 1 149.00000 418.400000
15886 11181 19002 1 149.00000 418.400000
11743 11182 19014 1 149.00000 418.400000
12079 11183 12143 1 149.00000 418.400000
12104 11184 12777 1 149.00000 418.400000
15764 11185 19074 1 149.00000 418.400000
12159 11186 12671 1 149.00000 418.400000
11669 11187 19086 1 149.00000 418.400000
12709 11188 19122 1 149.00000 418.400000
15254 11189 19134 1 149.00000 418.400000
11817 11190 19146 1 149.00000 418.400000
14999 11191 19170 1 149.00000 418.400000
12027 11192 19182 1 149.00000 418.400000
14556 11193 19230 1 149.00000 418.400000
13921 11194 19254 1 149.00000 418.400000
15819 11195 19290 1 149.00000 418.400000
16409 11196 19374 1 149.00000 418.400000
14120 11197 19386 1 149.00000 418.400000
11373 11198 19458 1 149.00000 418.400000
14717 11199 19530 1 149.00000 418.400000
14820 11200 19542 1 149.00000 418.400000
12502 11201 15704 1 149.00000 418.400000
12529 11202 13284 1 149.00000 418.400000
12560 11203 14894 1 149.00000 418.400000
15965 11204 19602 1 149.00000 418.400000
13179 11205 19614 1 149.00000 418.400000
12263 11206 19626 1 149.00000 418.400000
11346 11207 12589 1 149.00000 418.400000
12227 11208 12591 1 149.00000 418.400000
14806 11209 19746 1 149.00000 418.400000
13306 11210 19758 1 149.00000 418.400000
12675 11211 13495 1 149.00000 418.400000
12031 11212 19794 1 149.00000 418.400000
12591 11213 12685 1 149.00000 418.400000
14529 11214 19818 1 149.00000 418.400000
12692 11215 15891 1 149.00000 418.400000
15292 11216 19842 1 149.00000 418.400000
15972 11217 19854 1 149.00000 418.400000
15062 11218 19866 1 149.00000 418.400000
16139 11219 19902 1 149.00000 418.400000
13511 11220 19914 1 149.00000 418.400000
12144 11221 19950 1 149.00000 418.400000
11358 11222 19974 1 149.00000 418.400000
13124 11223 19986 1 149.00000 418.400000
16263 11224 20058 1 149.00000 418.400000
14035 11225 20070 1 149.00000 418.400000
12805 11226 20082 1 149.00000 418.400000
15801 11227 20154 1 149.00000 418.400000
14855 11228 20166 1 149.00000 418.400000
14903 11229 20178 1 149.00000 418.400000
16060 11230 20190 1 149.00000 418.400000
15719 11231 20214 1 149.00000 418.400000
16444 11232 20226 1 149.00000 418.400000
11910 11233 20250 1 149.00000 418.400000
11462 11234 20274 1 149.00000 418.400000
11435 11235 12865 1 149.00000 418.400000
11342 11236 12897 1 149.00000 418.400000
14980 11237 20406 1 149.00000 418.400000
14136 11238 20478 1 149.00000 418.400000
12587 11239 20526 1 149.00000 418.400000
16306 11240 20586 1 149.00000 418.400000
15766 11241 20718 1 149.00000 418.400000
14417 11242 20730 1 149.00000 418.400000
11850 11243 20742 1 149.00000 418.400000
13455 11244 20862 1 149.00000 418.400000
16477 11245 20910 1 149.00000 418.400000
12156 11246 20922 1 149.00000 418.400000
13164 11247 20946 1 149.00000 418.400000
16247 11248 20958 1 149.00000 418.400000
12675 11249 21006 1 149.00000 418.400000
12463 11250 21030 1 149.00000 418.400000
11889 11251 21066 1 149.00000 418.400000
11691 11252 21114 1 149.00000 418.400000
13744 11253 21138 1 149.00000 418.400000
14466 11254 21186 1 149.00000 418.400000
11792 11255 13286 1 149.00000 418.400000
14239 11256 21198 1 149.00000 418.400000
15482 11257 21234 1 149.00000 418.400000
14751 11258 21246 1 149.00000 418.400000
11737 11259 21282 1 149.00000 418.400000
12685 11260 21318 1 149.00000 418.400000
11938 11261 21342 1 149.00000 418.400000
11459 11262 21366 1 149.00000 418.400000
13286 11263 13456 1 149.00000 418.400000
13456 11264 19350 1 149.00000 418.400000
12079 11265 21402 1 149.00000 418.400000
12324 11266 21462 1 149.00000 418.400000
14303 11267 21486 1 149.00000 418.400000
11426 11268 13551 1 149.00000 418.400000
13554 11269 14750 1 149.00000 418.400000
13554 11270 19362 1 149.00000 418.400000
14270 11271 21510 1 149.00000 418.400000
12560 11272 21513 1 149.00000 418.400000
14280 11273 21531 1 149.00000 418.400000
15791 11274 21534 1 149.00000 418.400000
12674 11275 21537 1 149.00000 418.400000
13879 11276 21540 1 149.00000 418.400000
13874 11277 21549 1 149.00000 418.400000
11618 11278 21552 1 149.00000 418.400000
14155 11279 21555 1 149.00000 418.400000
12159 11280 13667 1 149.00000 418.400000
13170 11281 21561 1 149.00000 418.400000
15250 11282 21582 1 149.00000 418.400000
13477 11283 21588 1 149.00000 418.400000
12701 11284 21597 1 149.00000 418.400000
12502 11285 21603 1 149.00000 418.400000
11349 11286 13128 1 149.00000 418.400000
11365 11287 13296 1 149.00000 418.400000
11374 11288 13379 1 149.00000 418.400000
11378 11289 12149 1 149.00000 418.400000
11392 11290 15968 1 149.00000 418.400000
11400 11291 15215 1 149.00000 418.400000
11403 11292 12574 1 149.00000 418.400000
11405 11293 14173 1 149.00000 418.400000
11406 11294 15626 1 149.00000 418.400000
11407 11295 13667 1 149.00000 418.400000
11410 11296 12104 1 149.00000 418.400000
11415 11297 13397 1 149.00000 418.400000
11418 11298 13436 1 149.00000 418.400000
11440 11299 12786 1 149.00000 418.400000
11447 11300 15399 1 149.00000 418.400000
11453 11301 12442 1 149.00000 418.400000
11465 11302 15390 1 149.00000 418.400000
11480 11303 12242 1 149.00000 418.400000
11481 11304 13881 1 149.00000 418.400000
11492 11305 15672 1 149.00000 418.400000
11499 11306 13323 1 149.00000 418.400000
11504 11307 12678 1 149.00000 418.400000
11509 11308 12692 1 149.00000 418.400000
11523 11309 13217 1 149.00000 418.400000
11536 11310 15587 1 149.00000 418.400000
11537 11311 14682 1 149.00000 418.400000
11553 11312 12183 1 149.00000 418.400000
11555 11313 12856 1 149.00000 418.400000
11557 11314 16039 1 149.00000 418.400000
11558 11315 12897 1 149.00000 418.400000
11568 11316 12323 1 149.00000 418.400000
11569 11317 15593 1 149.00000 418.400000
11605 11318 12589 1 149.00000 418.400000
11620 11319 16242 1 149.00000 418.400000
11623 11320 15355 1 149.00000 418.400000
11642 11321 12045 1 149.00000 418.400000
11661 11322 14908 1 149.00000 418.400000
11674 11323 12113 1 149.00000 418.400000
11678 11324 12520 1 149.00000 418.400000
11703 11325 13194 1 149.00000 418.400000
11707 11326 15796 1 149.00000 418.400000
11717 11327 14215 1 149.00000 418.400000
11719 11328 15592 1 149.00000 418.400000
11724 11329 12281 1 149.00000 418.400000
11726 11330 12025 1 149.00000 418.400000
11735 11331 12529 1 149.00000 418.400000
11739 11332 12865 1 149.00000 418.400000
11762 11333 13363 1 149.00000 418.400000
11787 11334 14906 1 149.00000 418.400000
11791 11335 16118 1 149.00000 418.400000
11801 11336 15144 1 149.00000 418.400000
11809 11337 13551 1 149.00000 418.400000
11812 11338 14715 1 149.00000 418.400000
11815 11339 16152 1 149.00000 418.400000
11820 11340 13539 1 149.00000 418.400000
1 11341 2 1 109.50000 418.400000
1 11341 3 1 109.50000 418.400000
1 11341 4 1 109.50000 418.400000
2 11341 3 1 109.50000 418.400000
2 11341 4 1 109.50000 418.400000
3 11341 4 1 109.50000 418.400000
5 11342 6 1 109.50000 418.400000
5 11342 3184 1 109.50000 418.400000
5 11342 11236 1 109.50000 418.400000
6 11342 3184 1 109.50000 418.400000
6 11342 11236 1 109.50000 418.400000
3184 11342 11236 1 109.50000 418.400000
7 11343 8 1 109.50000 418.400000
7 11343 9 1 109.50000 418.400000
7 11343 10 1 109.50000 418.400000
8 11343 9 1 109.50000 418.400000
8 11343 10 1 109.50000 418.400000
9 11343 10 1 109.50000 418.400000
11 11344 12 1 109.50000 418.400000
11 11344 13 1 109.50000 418.400000
11 11344 11167 1 109.50000 418.400000
12 11344 13 1 109.50000 418.400000
12 11344 11167 1 109.50000 418.400000
13 11344 11167 1 109.50000 418.400000
14 11345 15 1 109.50000 418.400000
14 11345 16 1 109.50000 418.400000
14 11345 17 1 109.50000 418.400000
15 11345 16 1 109.50000 418.400000
15 11345 17 1 109.50000 418.400000
16 11345 17 1 109.50000 418.400000
19 11346 20 1 109.50000 418.400000
19 11346 21 1 109.50000 418.400000
19 11346 11207 1 109.50000 418.400000
20 11346 21 1 109.50000 418.400000
20 11346 11207 1 109.50000 418.400000
21 11346 11207 1 109.50000 418.400000
22 11347 23 1 109.50000 418.400000
22 11347 24 1 109.50000 418.400000
22 11347 25 1 109.50000 418.400000
23 11347 24 1 109.50000 418.400000
23 11347 25 1 109.50000 418.400000
24 11347 25 1 109.50000 418.400000
26 11348 27 1 109.50000 418.400000
26 11348 28 1 109.50000 418.400000
26 11348 29 1 109.50000 418.400000
27 11348 28 1 109.50000 418.400000
27 11348 29 1 109.50000 418.400000
28 11348 29 1 109.50000 418.400000
30 11349 31 1 109.50000 418.400000
30 11349 32 1 109.50000 418.400000
30 11349 11286 1 109.50000 418.400000
31 11349 32 1 109.50000 418.400000
31 11349 11286 1 109.50000 418.400000
32 11349 11286 1 109.50000 418.400000
33 11350 34 1 109.50000 418.400000
33 11350 35 1 109.50000 418.400000
33 11350 36 1 109.50000 418.400000
34 11350 35 1 109.50000 418.400000
34 11350 36 1 109.50000 418.400000
35 11350 36 1 109.50000 418.400000
37 11351 38 1 109.50000 418.400000
37 11351 39 1 109.50000 418.400000
37 11351 40 1 109.50000 418.400000
38 11351 39 1 109.50000 418.400000
38 11351 40 1 109.50000 418.400000
39 11351 40 1 109.50000 418.400000
41 11352 42 1 109.50000 418.400000
41 11352 43 1 109.50000 418.400000
41 11352 44 1 109.50000 418.400000
42 11352 43 1 109.50000 418.400000
42 11352 44 1 109.50000 418.400000
43 11352 44 1 109.50000 418.400000
45 11353 46 1 109.50000 418.400000
45 11353 47 1 109.50000 418.400000
45 11353 48 1 109.50000 418.400000
46 11353 47 1 109.50000 418.400000
46 11353 48 1 109.50000 418.400000
47 11353 48 1 109.50000 418.400000
49 11354 50 1 109.50000 418.400000
49 11354 51 1 109.50000 418.400000
49 11354 52 1 109.50000 418.400000
50 11354 51 1 109.50000 418.400000
50 11354 52 1 109.50000 418.400000
51 11354 52 1 109.50000 418.400000
53 11355 54 1 109.50000 418.400000
53 11355 55 1 109.50000 418.400000
53 11355 56 1 109.50000 418.400000
54 11355 55 1 109.50000 418.400000
54 11355 56 1 109.50000 418.400000
55 11355 56 1 109.50000 418.400000
57 11356 58 1 109.50000 418.400000
57 11356 59 1 109.50000 418.400000
57 11356 60 1 109.50000 418.400000
58 11356 59 1 109.50000 418.400000
58 11356 60 1 109.50000 418.400000
59 11356 60 1 109.50000 418.400000
61 11357 62 1 109.50000 418.400000
61 11357 63 1 109.50000 418.400000
61 11357 64 1 109.50000 418.400000
62 11357 63 1 109.50000 418.400000
62 11357 64 1 109.50000 418.400000
63 11357 64 1 109.50000 418.400000
65 11358 66 1 109.50000 418.400000
65 11358 67 1 109.50000 418.400000
65 11358 11222 1 109.50000 418.400000
66 11358 67 1 109.50000 418.400000
66 11358 11222 1 109.50000 418.400000
67 11358 11222 1 109.50000 418.400000
68 11359 69 1 109.50000 418.400000
68 11359 11138 1 109.50000 418.400000
68 11359 11139 1 109.50000 418.400000
69 11359 11138 1 109.50000 418.400000
69 11359 11139 1 109.50000 418.400000
11138 11359 11139 1 109.50000 418.400000
70 11360 71 1 109.50000 418.400000
70 11360 72 1 109.50000 418.400000
70 11360 73 1 109.50000 418.400000
71 11360 72 1 109.50000 418.400000
71 11360 73 1 109.50000 418.400000
72 11360 73 1 109.50000 418.400000
74 11361 75 1 109.50000 418.400000
74 11361 76 1 109.50000 418.400000
74 11361 77 1 109.50000 418.400000
75 11361 76 1 109.50000 418.400000
75 11361 77 1 109.50000 418.400000
76 11361 77 1 109.50000 418.400000
78 11362 79 1 109.50000 418.400000
78 11362 80 1 109.50000 418.400000
78 11362 81 1 109.50000 418.400000
79 11362 80 1 109.50000 418.400000
79 11362 81 1 109.50000 418.400000
80 11362 81 1 109.50000 418.400000
82 11363 83 1 109.50000 418.400000
82 11363 84 1 109.50000 418.400000
82 11363 85 1 109.50000 418.400000
83 11363 84 1 109.50000 418.400000
83 11363 85 1 109.50000 418.400000
84 11363 85 1 109.50000 418.400000
87 11364 88 1 109.50000 418.400000
87 11364 89 1 109.50000 418.400000
87 11364 5157 1 109.50000 418.400000
88 11364 89 1 109.50000 418.400000
88 11364 5157 1 109.50000 418.400000
89 11364 5157 1 109.50000 418.400000
90 11365 91 1 109.50000 418.400000
90 11365 92 1 109.50000 418.400000
90 11365 11287 1 109.50000 418.400000
91 11365 92 1 109.50000 418.400000
91 11365 11287 1 109.50000 418.400000
92 11365 11287 1 109.50000 418.400000
93 11366 94 1 109.50000 418.400000
93 11366 95 1 109.50000 418.400000
93 11366 96 1 109.50000 418.400000
94 11366 95 1 109.50000 418.400000
94 11366 96 1 109.50000 418.400000
95 11366 96 1 109.50000 418.400000
97 11367 98 1 109.50000 418.400000
97 11367 99 1 109.50000 418.400000
97 11367 100 1 109.50000 418.400000
98 11367 99 1 109.50000 418.400000
98 11367 100 1 109.50000 418.400000
99 11367 100 1 109.50000 418.400000
101 11368 102 1 109.50000 418.400000
101 11368 103 1 109.50000 418.400000
101 11368 104 1 109.50000 418.400000
102 11368 103 1 109.50000 418.400000
102 11368 104 1 109.50000 418.400000
103 11368 104 1 109.50000 418.400000
105 11369 106 1 109.50000 418.400000
105 11369 107 1 109.50000 418.400000
105 11369 108 1 109.50000 418.400000
106 11369 107 1 109.50000 418.400000
106 11369 108 1 109.50000 418.400000
107 11369 108 1 109.50000 418.400000
109 11370 110 1 109.50000 418.400000
109 11370 111 1 109.50000 418.400000
109 11370 112 1 109.50000 418.400000
110 11370 111 1 109.50000 418.400000
110 11370 112 1 109.50000 418.400000
111 11370 112 1 109.50000 418.400000
113 11371 114 1 109.50000 418.400000
113 11371 115 1 109.50000 418.400000
113 11371 116 1 109.50000 418.400000
114 11371 115 1 109.50000 418.400000
114 11371 116 1 109.50000 418.400000
115 11371 116 1 109.50000 418.400000
117 11372 118 1 109.50000 418.400000
117 11372 119 1 109.50000 418.400000
117 11372 120 1 109.50000 418.400000
118 11372 119 1 109.50000 418.400000
118 11372 120 1 109.50000 418.400000
119 11372 120 1 109.50000 418.400000
121 11373 122 1 109.50000 418.400000
121 11373 11139 1 109.50000 418.400000
121 11373 11198 1 109.50000 418.400000
122 11373 11139 1 109.50000 418.400000
122 11373 11198 1 109.50000 418.400000
11139 11373 11198 1 109.50000 418.400000
123 11374 124 1 109.50000 418.400000
123 11374 125 1 109.50000 418.400000
123 11374 11288 1 109.50000 418.400000
124 11374 125 1 109.50000 418.400000
124 11374 11288 1 109.50000 418.400000
125 11374 11288 1 109.50000 418.400000
126 11375 127 1 109.50000 418.400000
126 11375 128 1 109.50000 418.400000
126 11375 129 1 109.50000 418.400000
127 11375 128 1 109.50000 418.400000
127 11375 129 1 109.50000 418.400000
128 11375 129 1 109.50000 418.400000
130 11376 131 1 109.50000 418.400000
130 11376 132 1 109.50000 418.400000
130 11376 133 1 109.50000 418.400000
131 11376 132 1 109.50000 418.400000
131 11376 133 1 109.50000 418.400000
132 11376 133 1 109.50000 418.400000
127 11377 134 1 109.50000 418.400000
127 11377 135 1 109.50000 418.400000
127 11377 136 1 109.50000 418.400000
134 11377 135 1 109.50000 418.400000
134 11377 136 1 109.50000 418.400000
135 11377 136 1 109.50000 418.400000
137 11378 138 1 109.50000 418.400000
137 11378 139 1 109.50000 418.400000
137 11378 11289 1 109.50000 418.400000
138 11378 139 1 109.50000 418.400000
138 11378 11289 1 109.50000 418.400000
139 11378 11289 1 109.50000 418.400000
140 11379 141 1 109.50000 418.400000
140 11379 142 1 109.50000 418.400000
140 11379 143 1 109.50000 418.400000
141 11379 142 1 109.50000 418.400000
141 11379 143 1 109.50000 418.400000
142 11379 143 1 109.50000 418.400000
144 11380 145 1 109.50000 418.400000
144 11380 146 1 109.50000 418.400000
144 11380 147 1 109.50000 418.400000
145 11380 146 1 109.50000 418.400000
145 11380 147 1 109.50000 418.400000
146 11380 147 1 109.50000 418.400000
149 11381 150 1 109.50000 418.400000
149 11381 151 1 109.50000 418.400000
149 11381 3054 1 109.50000 418.400000
150 11381 151 1 109.50000 418.400000
150 11381 3054 1 109.50000 418.400000
151 11381 3054 1 109.50000 418.400000
152 11382 153 1 109.50000 418.400000
152 11382 154 1 109.50000 418.400000
152 11382 155 1 109.50000 418.400000
153 11382 154 1 109.50000 418.400000
153 11382 155 1 109.50000 418.400000
154 11382 155 1 109.50000 418.400000
14 11383 156 1 109.50000 418.400000
14 11383 157 1 109.50000 418.400000
14 11383 158 1 109.50000 418.400000
156 11383 157 1 109.50000 418.400000
156 11383 158 1 109.50000 418.400000
157 11383 158 1 109.50000 418.400000
160 11384 161 1 109.50000 418.400000
160 11384 162 1 109.50000 418.400000
160 11384 7368 1 109.50000 418.400000
161 11384 162 1 109.50000 418.400000
161 11384 7368 1 109.50000 418.400000
162 11384 7368 1 109.50000 418.400000
163 11385 164 1 109.50000 418.400000
163 11385 165 1 109.50000 418.400000
163 11385 166 1 109.50000 418.400000
164 11385 165 1 109.50000 418.400000
164 11385 166 1 109.50000 418.400000
165 11385 166 1 109.50000 418.400000
63 11386 167 1 109.50000 418.400000
63 11386 168 1 109.50000 418.400000
63 11386 169 1 109.50000 418.400000
167 11386 168 1 109.50000 418.400000
167 11386 169 1 109.50000 418.400000
168 11386 169 1 109.50000 418.400000
170 11387 171 1 109.50000 418.400000
170 11387 172 1 109.50000 418.400000
170 11387 173 1 109.50000 418.400000
171 11387 172 1 109.50000 418.400000
171 11387 173 1 109.50000 418.400000
172 11387 173 1 109.50000 418.400000
174 11388 175 1 109.50000 418.400000
174 11388 176 1 109.50000 418.400000
174 11388 177 1 109.50000 418.400000
175 11388 176 1 109.50000 418.400000
175 11388 177 1 109.50000 418.400000
176 11388 177 1 109.50000 418.400000
180 11389 181 1 109.50000 418.400000
180 11389 182 1 109.50000 418.400000
180 11389 183 1 109.50000 418.400000
181 11389 182 1 109.50000 418.400000
181 11389 183 1 109.50000 418.400000
182 11389 183 1 109.50000 418.400000
184 11390 185 1 109.50000 418.400000
184 11390 186 1 109.50000 418.400000
184 11390 187 1 109.50000 418.400000
185 11390 186 1 109.50000 418.400000
185 11390 187 1 109.50000 418.400000
186 11390 187 1 109.50000 418.400000
188 11391 189 1 109.50000 418.400000
188 11391 190 1 109.50000 418.400000
188 11391 191 1 109.50000 418.400000
189 11391 190 1 109.50000 418.400000
189 11391 191 1 109.50000 418.400000
190 11391 191 1 109.50000 418.400000
192 11392 1858 1 109.50000 418.400000
192 11392 11141 1 109.50000 418.400000
192 11392 11290 1 109.50000 418.400000
1858 11392 11141 1 109.50000 418.400000
1858 11392 11290 1 109.50000 418.400000
11141 11392 11290 1 109.50000 418.400000
193 11393 194 1 109.50000 418.400000
193 11393 195 1 109.50000 418.400000
193 11393 196 1 109.50000 418.400000
194 11393 195 1 109.50000 418.400000
194 11393 196 1 109.50000 418.400000
195 11393 196 1 109.50000 418.400000
197 11394 198 1 109.50000 418.400000
197 11394 199 1 109.50000 418.400000
197 11394 200 1 109.50000 418.400000
198 11394 199 1 109.50000 418.400000
198 11394 200 1 109.50000 418.400000
199 11394 200 1 109.50000 418.400000
201 11395 202 1 109.50000 418.400000
201 11395 203 1 109.50000 418.400000
201 11395 8675 1 109.50000 418.400000
202 11395 203 1 109.50000 418.400000
202 11395 8675 1 109.50000 418.400000
203 11395 8675 1 109.50000 418.400000
206 11396 207 1 109.50000 418.400000
206 11396 208 1 109.50000 418.400000
206 11396 2442 1 109.50000 418.400000
207 11396 208 1 109.50000 418.400000
207 11396 2442 1 109.50000 418.400000
208 11396 2442 1 109.50000 418.400000
209 11397 210 1 109.50000 418.400000
209 11397 211 1 109.50000 418.400000
209 11397 212 1 109.50000 418.400000
210 11397 211 1 109.50000 418.400000
210 11397 212 1 109.50000 418.400000
211 11397 212 1 109.50000 418.400000
214 11398 215 1 109.50000 418.400000
214 11398 216 1 109.50000 418.400000
214 11398 1197 1 109.50000 418.400000
215 11398 216 1 109.50000 418.400000
215 11398 1197 1 109.50000 418.400000
216 11398 1197 1 109.50000 418.400000
217 11399 218 1 109.50000 418.400000
217 11399 219 1 109.50000 418.400000
217 11399 220 1 109.50000 418.400000
218 11399 219 1 109.50000 418.400000
218 11399 220 1 109.50000 418.400000
219 11399 220 1 109.50000 418.400000
221 11400 222 1 109.50000 418.400000
221 11400 223 1 109.50000 418.400000
221 11400 11291 1 109.50000 418.400000
222 11400 223 1 109.50000 418.400000
222 11400 11291 1 109.50000 418.400000
223 11400 11291 1 109.50000 418.400000
224 11401 225 1 109.50000 418.400000
224 11401 226 1 109.50000 418.400000
224 11401 227 1 109.50000 418.400000
225 11401 226 1 109.50000 418.400000
225 11401 227 1 109.50000 418.400000
226 11401 227 1 109.50000 418.400000
228 11402 229 1 109.50000 418.400000
228 11402 230 1 109.50000 418.400000
228 11402 231 1 109.50000 418.400000
229 11402 230 1 109.50000 418.400000
229 11402 231 1 109.50000 418.400000
230 11402 231 1 109.50000 418.400000
232 11403 233 1 109.50000 418.400000
232 11403 234 1 109.50000 418.400000
232 11403 11292 1 109.50000 418.400000
233 11403 234 1 109.50000 418.400000
233 11403 11292 1 109.50000 418.400000
234 11403 11292 1 109.50000 418.400000
237 11404 8525 1 109.50000 418.400000
237 11404 8526 1 109.50000 418.400000
237 11404 8527 1 109.50000 418.400000
8525 11404 8526 1 109.50000 418.400000
8525 11404 8527 1 109.50000 418.400000
8526 11404 8527 1 109.50000 418.400000
239 11405 240 1 109.50000 418.400000
239 11405 241 1 109.50000 418.400000
239 11405 11293 1 109.50000 418.400000
240 11405 241 1 109.50000 418.400000
240 11405 11293 1 109.50000 418.400000
241 11405 11293 1 109.50000 418.400000
242 11406 243 1 109.50000 418.400000
242 11406 244 1 109.50000 418.400000
242 11406 11294 1 109.50000 418.400000
243 11406 244 1 109.50000 418.400000
243 11406 11294 1 109.50000 418.400000
244 11406 11294 1 109.50000 418.400000
245 11407 9797 1 109.50000 418.400000
245 11407 11142 1 109.50000 418.400000
245 11407 11295 1 109.50000 418.400000
9797 11407 11142 1 109.50000 418.400000
9797 11407 11295 1 109.50000 418.400000
11142 11407 11295 1 109.50000 418.400000
246 11408 247 1 109.50000 418.400000
246 11408 248 1 109.50000 418.400000
246 11408 249 1 109.50000 418.400000
247 11408 248 1 109.50000 418.400000
247 11408 249 1 109.50000 418.400000
248 11408 249 1 109.50000 418.400000
251 11409 252 1 109.50000 418.400000
251 11409 253 1 109.50000 418.400000
251 11409 10275 1 109.50000 418.400000
252 11409 253 1 109.50000 418.400000
252 11409 10275 1 109.50000 418.400000
253 11409 10275 1 109.50000 418.400000
254 11410 255 1 109.50000 418.400000
254 11410 11143 1 109.50000 418.400000
254 11410 11296 1 109.50000 418.400000
255 11410 11143 1 109.50000 418.400000
255 11410 11296 1 109.50000 418.400000
11143 11410 11296 1 109.50000 418.400000
256 11411 257 1 109.50000 418.400000
256 11411 258 1 109.50000 418.400000
256 11411 259 1 109.50000 418.400000
257 11411 258 1 109.50000 418.400000
257 11411 259 1 109.50000 418.400000
258 11411 259 1 109.50000 418.400000
260 11412 261 1 109.50000 418.400000
260 11412 262 1 109.50000 418.400000
260 11412 263 1 109.50000 418.400000
261 11412 262 1 109.50000 418.400000
261 11412 263 1 109.50000 418.400000
262 11412 263 1 109.50000 418.400000
264 11413 265 1 109.50000 418.400000
264 11413 266 1 109.50000 418.400000
264 11413 267 1 109.50000 418.400000
265 11413 266 1 109.50000 418.400000
265 11413 267 1 109.50000 418.400000
266 11413 267 1 109.50000 418.400000
268 11414 269 1 109.50000 418.400000
268 11414 270 1 109.50000 418.400000
268 11414 271 1 109.50000 418.400000
269 11414 270 1 109.50000 418.400000
269 11414 271 1 109.50000 418.400000
270 11414 271 1 109.50000 418.400000
272 11415 273 1 109.50000 418.400000
272 11415 274 1 109.50000 418.400000
272 11415 11297 1 109.50000 418.400000
273 11415 274 1 109.50000 418.400000
273 11415 11297 1 109.50000 418.400000
274 11415 11297 1 109.50000 418.400000
275 11416 276 1 109.50000 418.400000
275 11416 277 1 109.50000 418.400000
275 11416 278 1 109.50000 418.400000
276 11416 277 1 109.50000 418.400000
276 11416 278 1 109.50000 418.400000
277 11416 278 1 109.50000 418.400000
279 11417 280 1 109.50000 418.400000
279 11417 281 1 109.50000 418.400000
279 11417 282 1 109.50000 418.400000
280 11417 281 1 109.50000 418.400000
280 11417 282 1 109.50000 418.400000
281 11417 282 1 109.50000 418.400000
283 11418 284 1 109.50000 418.400000
283 11418 285 1 109.50000 418.400000
283 11418 11298 1 109.50000 418.400000
284 11418 285 1 109.50000 418.400000
284 11418 11298 1 109.50000 418.400000
285 11418 11298 1 109.50000 418.400000
286 11419 287 1 109.50000 418.400000
286 11419 288 1 109.50000 418.400000
286 11419 289 1 109.50000 418.400000
287 11419 288 1 109.50000 418.400000
287 11419 289 1 109.50000 418.400000
288 11419 289 1 109.50000 418.400000
290 11420 291 1 109.50000 418.400000
290 11420 292 1 109.50000 418.400000
290 11420 1212 1 109.50000 418.400000
291 11420 292 1 109.50000 418.400000
291 11420 1212 1 109.50000 418.400000
292 11420 1212 1 109.50000 418.400000
294 11421 295 1 109.50000 418.400000
294 11421 296 1 109.50000 418.400000
294 11421 9847 1 109.50000 418.400000
295 11421 296 1 109.50000 418.400000
295 11421 9847 1 109.50000 418.400000
296 11421 9847 1 109.50000 418.400000
298 11422 299 1 109.50000 418.400000
298 11422 300 1 109.50000 418.400000
298 11422 301 1 109.50000 418.400000
299 11422 300 1 109.50000 418.400000
299 11422 301 1 109.50000 418.400000
300 11422 301 1 109.50000 418.400000
302 11423 303 1 109.50000 418.400000
302 11423 304 1 109.50000 418.400000
302 11423 305 1 109.50000 418.400000
303 11423 304 1 109.50000 418.400000
303 11423 305 1 109.50000 418.400000
304 11423 305 1 109.50000 418.400000
306 11424 307 1 109.50000 418.400000
306 11424 308 1 109.50000 418.400000
306 11424 309 1 109.50000 418.400000
307 11424 308 1 109.50000 418.400000
307 11424 309 1 109.50000 418.400000
308 11424 309 1 109.50000 418.400000
310 11425 311 1 109.50000 418.400000
310 11425 312 1 109.50000 418.400000
310 11425 313 1 109.50000 418.400000
311 11425 312 1 109.50000 418.400000
311 11425 313 1 109.50000 418.400000
312 11425 313 1 109.50000 418.400000
263 11426 314 1 109.50000 418.400000
263 11426 315 1 109.50000 418.400000
263 11426 11268 1 109.50000 418.400000
314 11426 315 1 109.50000 418.400000
314 11426 11268 1 109.50000 418.400000
315 11426 11268 1 109.50000 418.400000
316 11427 317 1 109.50000 418.400000
316 11427 318 1 109.50000 418.400000
316 11427 319 1 109.50000 418.400000
317 11427 318 1 109.50000 418.400000
317 11427 319 1 109.50000 418.400000
318 11427 319 1 109.50000 418.400000
289 11428 321 1 109.50000 418.400000
289 11428 322 1 109.50000 418.400000
289 11428 323 1 109.50000 418.400000
321 11428 322 1 109.50000 418.400000
321 11428 323 1 109.50000 418.400000
322 11428 323 1 109.50000 418.400000
324 11429 325 1 109.50000 418.400000
324 11429 326 1 109.50000 418.400000
324 11429 327 1 109.50000 418.400000
325 11429 326 1 109.50000 418.400000
325 11429 327 1 109.50000 418.400000
326 11429 327 1 109.50000 418.400000
328 11430 329 1 109.50000 418.400000
328 11430 330 1 109.50000 418.400000
328 11430 331 1 109.50000 418.400000
329 11430 330 1 109.50000 418.400000
329 11430 331 1 109.50000 418.400000
330 11430 331 1 109.50000 418.400000
332 11431 333 1 109.50000 418.400000
332 11431 334 1 109.50000 418.400000
332 11431 335 1 109.50000 418.400000
333 11431 334 1 109.50000 418.400000
333 11431 335 1 109.50000 418.400000
334 11431 335 1 109.50000 418.400000
338 11432 770 1 109.50000 418.400000
338 11432 5300 1 109.50000 418.400000
338 11432 5799 1 109.50000 418.400000
770 11432 5300 1 109.50000 418.400000
770 11432 5799 1 109.50000 418.400000
5300 11432 5799 1 109.50000 418.400000
340 11433 341 1 109.50000 418.400000
340 11433 342 1 109.50000 418.400000
340 11433 343 1 109.50000 418.400000
341 11433 342 1 109.50000 418.400000
341 11433 343 1 109.50000 418.400000
342 11433 343 1 109.50000 418.400000
344 11434 345 1 109.50000 418.400000
344 11434 346 1 109.50000 418.400000
344 11434 347 1 109.50000 418.400000
345 11434 346 1 109.50000 418.400000
345 11434 347 1 109.50000 418.400000
346 11434 347 1 109.50000 418.400000
350 11435 351 1 109.50000 418.400000
350 11435 6650 1 109.50000 418.400000
350 11435 11235 1 109.50000 418.400000
351 11435 6650 1 109.50000 418.400000
351 11435 11235 1 109.50000 418.400000
6650 11435 11235 1 109.50000 418.400000
352 11436 353 1 109.50000 418.400000
352 11436 354 1 109.50000 418.400000
352 11436 355 1 109.50000 418.400000
353 11436 354 1 109.50000 418.400000
353 11436 355 1 109.50000 418.400000
354 11436 355 1 109.50000 418.400000
356 11437 357 1 109.50000 418.400000
356 11437 358 1 109.50000 418.400000
356 11437 359 1 109.50000 418.400000
357 11437 358 1 109.50000 418.400000
357 11437 359 1 109.50000 418.400000
358 11437 359 1 109.50000 418.400000
360 11438 361 1 109.50000 418.400000
360 11438 362 1 109.50000 418.400000
360 11438 363 1 109.50000 418.400000
361 11438 362 1 109.50000 418.400000
361 11438 363 1 109.50000 418.400000
362 11438 363 1 109.50000 418.400000
364 11439 365 1 109.50000 418.400000
364 11439 366 1 109.50000 418.400000
364 11439 367 1 109.50000 418.400000
365 11439 366 1 109.50000 418.400000
365 11439 367 1 109.50000 418.400000
366 11439 367 1 109.50000 418.400000
369 11440 8212 1 109.50000 418.400000
369 11440 9394 1 109.50000 418.400000
369 11440 11299 1 109.50000 418.400000
8212 11440 9394 1 109.50000 418.400000
8212 11440 11299 1 109.50000 418.400000
9394 11440 11299 1 109.50000 418.400000
372 11441 374 1 109.50000 418.400000
372 11441 2432 1 109.50000 418.400000
372 11441 6266 1 109.50000 418.400000
374 11441 2432 1 109.50000 418.400000
374 11441 6266 1 109.50000 418.400000
2432 11441 6266 1 109.50000 418.400000
377 11442 378 1 109.50000 418.400000
377 11442 1946 1 109.50000 418.400000
377 11442 1948 1 109.50000 418.400000
378 11442 1946 1 109.50000 418.400000
378 11442 1948 1 109.50000 418.400000
1946 11442 1948 1 109.50000 418.400000
379 11443 380 1 109.50000 418.400000
379 11443 381 1 109.50000 418.400000
379 11443 382 1 109.50000 418.400000
380 11443 381 1 109.50000 418.400000
380 11443 382 1 109.50000 418.400000
381 11443 382 1 109.50000 418.400000
383 11444 384 1 109.50000 418.400000
383 11444 385 1 109.50000 418.400000
383 11444 386 1 109.50000 418.400000
384 11444 385 1 109.50000 418.400000
384 11444 386 1 109.50000 418.400000
385 11444 386 1 109.50000 418.400000
387 11445 388 1 109.50000 418.400000
387 11445 389 1 109.50000 418.400000
387 11445 390 1 109.50000 418.400000
388 11445 389 1 109.50000 418.400000
388 11445 390 1 109.50000 418.400000
389 11445 390 1 109.50000 418.400000
391 11446 392 1 109.50000 418.400000
391 11446 393 1 109.50000 418.400000
391 11446 394 1 109.50000 418.400000
392 11446 393 1 109.50000 418.400000
392 11446 394 1 109.50000 418.400000
393 11446 394 1 109.50000 418.400000
395 11447 396 1 109.50000 418.400000
395 11447 11144 1 109.50000 418.400000
395 11447 11300 1 109.50000 418.400000
396 11447 11144 1 109.50000 418.400000
396 11447 11300 1 109.50000 418.400000
11144 11447 11300 1 109.50000 418.400000
397 11448 399 1 109.50000 418.400000
397 11448 400 1 109.50000 418.400000
397 11448 4444 1 109.50000 418.400000
399 11448 400 1 109.50000 418.400000
399 11448 4444 1 109.50000 418.400000
400 11448 4444 1 109.50000 418.400000
401 11449 402 1 109.50000 418.400000
401 11449 403 1 109.50000 418.400000
401 11449 404 1 109.50000 418.400000
402 11449 403 1 109.50000 418.400000
402 11449 404 1 109.50000 418.400000
403 11449 404 1 109.50000 418.400000
405 11450 406 1 109.50000 418.400000
405 11450 408 1 109.50000 418.400000
405 11450 8729 1 109.50000 418.400000
406 11450 408 1 109.50000 418.400000
406 11450 8729 1 109.50000 418.400000
408 11450 8729 1 109.50000 418.400000
409 11451 410 1 109.50000 418.400000
409 11451 411 1 109.50000 418.400000
409 11451 412 1 109.50000 418.400000
410 11451 411 1 109.50000 418.400000
410 11451 412 1 109.50000 418.400000
411 11451 412 1 109.50000 418.400000
413 11452 414 1 109.50000 418.400000
413 11452 415 1 109.50000 418.400000
413 11452 416 1 109.50000 418.400000
414 11452 415 1 109.50000 418.400000
414 11452 416 1 109.50000 418.400000
415 11452 416 1 109.50000 418.400000
417 11453 418 1 109.50000 418.400000
417 11453 419 1 109.50000 418.400000
417 11453 11301 1 109.50000 418.400000
418 11453 419 1 109.50000 418.400000
418 11453 11301 1 109.50000 418.400000
419 11453 11301 1 109.50000 418.400000
420 11454 421 1 109.50000 418.400000
420 11454 422 1 109.50000 418.400000
420 11454 423 1 109.50000 418.400000
421 11454 422 1 109.50000 418.400000
421 11454 423 1 109.50000 418.400000
422 11454 423 1 109.50000 418.400000
271 11455 424 1 109.50000 418.400000
271 11455 425 1 109.50000 418.400000
271 11455 426 1 109.50000 418.400000
424 11455 425 1 109.50000 418.400000
424 11455 426 1 109.50000 418.400000
425 11455 426 1 109.50000 418.400000
427 11456 428 1 109.50000 418.400000
427 11456 429 1 109.50000 418.400000
427 11456 430 1 109.50000 418.400000
428 11456 429 1 109.50000 418.400000
428 11456 430 1 109.50000 418.400000
429 11456 430 1 109.50000 418.400000
431 11457 432 1 109.50000 418.400000
431 11457 433 1 109.50000 418.400000
431 11457 434 1 109.50000 418.400000
432 11457 433 1 109.50000 418.400000
432 11457 434 1 109.50000 418.400000
433 11457 434 1 109.50000 418.400000
436 11458 437 1 109.50000 418.400000
436 11458 438 1 109.50000 418.400000
436 11458 2817 1 109.50000 418.400000
437 11458 438 1 109.50000 418.400000
437 11458 2817 1 109.50000 418.400000
438 11458 2817 1 109.50000 418.400000
439 11459 440 1 109.50000 418.400000
439 11459 11145 1 109.50000 418.400000
439 11459 11262 1 109.50000 418.400000
440 11459 11145 1 109.50000 418.400000
440 11459 11262 1 109.50000 418.400000
11145 11459 11262 1 109.50000 418.400000
441 11460 442 1 109.50000 418.400000
441 11460 443 1 109.50000 418.400000
441 11460 444 1 109.50000 418.400000
442 11460 443 1 109.50000 418.400000
442 11460 444 1 109.50000 418.400000
443 11460 444 1 109.50000 418.400000
445 11461 446 1 109.50000 418.400000
445 11461 447 1 109.50000 418.400000
445 11461 448 1 109.50000 418.400000
446 11461 447 1 109.50000 418.400000
446 11461 448 1 109.50000 418.400000
447 11461 448 1 109.50000 418.400000
449 11462 450 1 109.50000 418.400000
449 11462 11146 1 109.50000 418.400000
449 11462 11234 1 109.50000 418.400000
450 11462 11146 1 109.50000 418.400000
450 11462 11234 1 109.50000 418.400000
11146 11462 11234 1 109.50000 418.400000
451 11463 452 1 109.50000 418.400000
451 11463 453 1 109.50000 418.400000
451 11463 454 1 109.50000 418.400000
452 11463 453 1 109.50000 418.400000
452 11463 454 1 109.50000 418.400000
453 11463 454 1 109.50000 418.400000
455 11464 456 1 109.50000 418.400000
455 11464 457 1 109.50000 418.400000
455 11464 458 1 109.50000 418.400000
456 11464 457 1 109.50000 418.400000
456 11464 458 1 109.50000 418.400000
457 11464 458 1 109.50000 418.400000
459 11465 460 1 109.50000 418.400000
459 11465 11147 1 109.50000 418.400000
459 11465 11302 1 109.50000 418.400000
460 11465 11147 1 109.50000 418.400000
460 11465 11302 1 109.50000 418.400000
11147 11465 11302 1 109.50000 418.400000
461 11466 462 1 109.50000 418.400000
461 11466 463 1 109.50000 418.400000
461 11466 464 1 109.50000 418.400000
462 11466 463 1 109.50000 418.400000
462 11466 464 1 109.50000 418.400000
463 11466 464 1 109.50000 418.400000
465 11467 466 1 109.50000 418.400000
465 11467 467 1 109.50000 418.400000
465 11467 468 1 109.50000 418.400000
466 11467 467 1 109.50000 418.400000
466 11467 468 1 109.50000 418.400000
467 11467 468 1 109.50000 418.400000
469 11468 470 1 109.50000 418.400000
469 11468 471 1 109.50000 418.400000
469 11468 472 1 109.50000 418.400000
470 11468 471 1 109.50000 418.400000
470 11468 472 1 109.50000 418.400000
471 11468 472 1 109.50000 418.400000
473 11469 474 1 109.50000 418.400000
473 11469 11148 1 109.50000 418.400000
473 11469 11162 1 109.50000 418.400000
474 11469 11148 1 109.50000 418.400000
474 11469 11162 1 109.50000 418.400000
11148 11469 11162 1 109.50000 418.400000
475 11470 476 1 109.50000 418.400000
475 11470 477 1 109.50000 418.400000
475 11470 478 1 109.50000 418.400000
476 11470 477 1 109.50000 418.400000
476 11470 478 1 109.50000 418.400000
477 11470 478 1 109.50000 418.400000
479 11471 482 1 109.50000 418.400000
479 11471 4167 1 109.50000 418.400000
479 11471 4168 1 109.50000 418.400000
482 11471 4167 1 109.50000 418.400000
482 11471 4168 1 109.50000 418.400000
4167 11471 4168 1 109.50000 418.400000
483 11472 484 1 109.50000 418.400000
483 11472 485 1 109.50000 418.400000
483 11472 486 1 109.50000 418.400000
484 11472 485 1 109.50000 418.400000
484 11472 486 1 109.50000 418.400000
485 11472 486 1 109.50000 418.400000
487 11473 488 1 109.50000 418.400000
487 11473 489 1 109.50000 418.400000
487 11473 490 1 109.50000 418.400000
488 11473 489 1 109.50000 418.400000
488 11473 490 1 109.50000 418.400000
489 11473 490 1 109.50000 418.400000
491 11474 492 1 109.50000 418.400000
491 11474 493 1 109.50000 418.400000
491 11474 494 1 109.50000 418.400000
492 11474 493 1 109.50000 418.400000
492 11474 494 1 109.50000 418.400000
493 11474 494 1 109.50000 418.400000
496 11475 497 1 109.50000 418.400000
496 11475 498 1 109.50000 418.400000
496 11475 7669 1 109.50000 418.400000
497 11475 498 1 109.50000 418.400000
497 11475 7669 1 109.50000 418.400000
498 11475 7669 1 109.50000 418.400000
500 11476 501 1 109.50000 418.400000
500 11476 502 1 109.50000 418.400000
500 11476 503 1 109.50000 418.400000
501 11476 502 1 109.50000 418.400000
501 11476 503 1 109.50000 418.400000
502 11476 503 1 109.50000 418.400000
504 11477 505 1 109.50000 418.400000
504 11477 506 1 109.50000 418.400000
504 11477 507 1 109.50000 418.400000
505 11477 506 1 109.50000 418.400000
505 11477 507 1 109.50000 418.400000
506 11477 507 1 109.50000 418.400000
508 11478 509 1 109.50000 418.400000
508 11478 510 1 109.50000 418.400000
508 11478 511 1 109.50000 418.400000
509 11478 510 1 109.50000 418.400000
509 11478 511 1 109.50000 418.400000
510 11478 511 1 109.50000 418.400000
123 11479 512 1 109.50000 418.400000
123 11479 513 1 109.50000 418.400000
123 11479 514 1 109.50000 418.400000
512 11479 513 1 109.50000 418.400000
512 11479 514 1 109.50000 418.400000
513 11479 514 1 109.50000 418.400000
515 11480 516 1 109.50000 418.400000
515 11480 517 1 109.50000 418.400000
515 11480 11303 1 109.50000 418.400000
516 11480 517 1 109.50000 418.400000
516 11480 11303 1 109.50000 418.400000
517 11480 11303 1 109.50000 418.400000
518 11481 519 1 109.50000 418.400000
518 11481 520 1 109.50000 418.400000
518 11481 11304 1 109.50000 418.400000
519 11481 520 1 109.50000 418.400000
519 11481 11304 1 109.50000 418.400000
520 11481 11304 1 109.50000 418.400000
521 11482 522 1 109.50000 418.400000
521 11482 524 1 109.50000 418.400000
521 11482 4624 1 109.50000 418.400000
522 11482 524 1 109.50000 418.400000
522 11482 4624 1 109.50000 418.400000
524 11482 4624 1 109.50000 418.400000
525 11483 526 1 109.50000 418.400000
525 11483 527 1 109.50000 418.400000
525 11483 528 1 109.50000 418.400000
526 11483 527 1 109.50000 418.400000
526 11483 528 1 109.50000 418.400000
527 11483 528 1 109.50000 418.400000
529 11484 530 1 109.50000 418.400000
529 11484 531 1 109.50000 418.400000
529 11484 532 1 109.50000 418.400000
530 11484 531 1 109.50000 418.400000
530 11484 532 1 109.50000 418.400000
531 11484 532 1 109.50000 418.400000
503 11485 533 1 109.50000 418.400000
503 11485 534 1 109.50000 418.400000
503 11485 535 1 109.50000 418.400000
533 11485 534 1 109.50000 418.400000
533 11485 535 1 109.50000 418.400000
534 11485 535 1 109.50000 418.400000
5 11486 536 1 109.50000 418.400000
5 11486 537 1 109.50000 418.400000
5 11486 538 1 109.50000 418.400000
536 11486 537 1 109.50000 418.400000
536 11486 538 1 109.50000 418.400000
537 11486 538 1 109.50000 418.400000
539 11487 540 1 109.50000 418.400000
539 11487 541 1 109.50000 418.400000
539 11487 542 1 109.50000 418.400000
540 11487 541 1 109.50000 418.400000
540 11487 542 1 109.50000 418.400000
541 11487 542 1 109.50000 418.400000
545 11488 1597 1 109.50000 418.400000
545 11488 4639 1 109.50000 418.400000
545 11488 4640 1 109.50000 418.400000
1597 11488 4639 1 109.50000 418.400000
1597 11488 4640 1 109.50000 418.400000
4639 11488 4640 1 109.50000 418.400000
249 11489 426 1 109.50000 418.400000
249 11489 546 1 109.50000 418.400000
249 11489 547 1 109.50000 418.400000
426 11489 546 1 109.50000 418.400000
426 11489 547 1 109.50000 418.400000
546 11489 547 1 109.50000 418.400000
548 11490 549 1 109.50000 418.400000
548 11490 550 1 109.50000 418.400000
548 11490 551 1 109.50000 418.400000
549 11490 550 1 109.50000 418.400000
549 11490 551 1 109.50000 418.400000
550 11490 551 1 109.50000 418.400000
552 11491 553 1 109.50000 418.400000
552 11491 554 1 109.50000 418.400000
552 11491 1131 1 109.50000 418.400000
553 11491 554 1 109.50000 418.400000
553 11491 1131 1 109.50000 418.400000
554 11491 1131 1 109.50000 418.400000
556 11492 557 1 109.50000 418.400000
556 11492 558 1 109.50000 418.400000
556 11492 11305 1 109.50000 418.400000
557 11492 558 1 109.50000 418.400000
557 11492 11305 1 109.50000 418.400000
558 11492 11305 1 109.50000 418.400000
559 11493 560 1 109.50000 418.400000
559 11493 561 1 109.50000 418.400000
559 11493 11154 1 109.50000 418.400000
560 11493 561 1 109.50000 418.400000
560 11493 11154 1 109.50000 418.400000
561 11493 11154 1 109.50000 418.400000
562 11494 563 1 109.50000 418.400000
562 11494 564 1 109.50000 418.400000
562 11494 565 1 109.50000 418.400000
563 11494 564 1 109.50000 418.400000
563 11494 565 1 109.50000 418.400000
564 11494 565 1 109.50000 418.400000
566 11495 567 1 109.50000 418.400000
566 11495 568 1 109.50000 418.400000
566 11495 569 1 109.50000 418.400000
567 11495 568 1 109.50000 418.400000
567 11495 569 1 109.50000 418.400000
568 11495 569 1 109.50000 418.400000
570 11496 571 1 109.50000 418.400000
570 11496 572 1 109.50000 418.400000
570 11496 573 1 109.50000 418.400000
571 11496 572 1 109.50000 418.400000
571 11496 573 1 109.50000 418.400000
572 11496 573 1 109.50000 418.400000
574 11497 575 1 109.50000 418.400000
574 11497 576 1 109.50000 418.400000
574 11497 577 1 109.50000 418.400000
575 11497 576 1 109.50000 418.400000
575 11497 577 1 109.50000 418.400000
576 11497 577 1 109.50000 418.400000
347 11498 580 1 109.50000 418.400000
347 11498 581 1 109.50000 418.400000
347 11498 582 1 109.50000 418.400000
580 11498 581 1 109.50000 418.400000
580 11498 582 1 109.50000 418.400000
581 11498 582 1 109.50000 418.400000
583 11499 584 1 109.50000 418.400000
583 11499 11149 1 109.50000 418.400000
583 11499 11306 1 109.50000 418.400000
584 11499 11149 1 109.50000 418.400000
584 11499 11306 1 109.50000 418.400000
11149 11499 11306 1 109.50000 418.400000
585 11500 586 1 109.50000 418.400000
585 11500 587 1 109.50000 418.400000
585 11500 588 1 109.50000 418.400000
586 11500 587 1 109.50000 418.400000
586 11500 588 1 109.50000 418.400000
587 11500 588 1 109.50000 418.400000
589 11501 590 1 109.50000 418.400000
589 11501 591 1 109.50000 418.400000
589 11501 592 1 109.50000 418.400000
590 11501 591 1 109.50000 418.400000
590 11501 592 1 109.50000 418.400000
591 11501 592 1 109.50000 418.400000
593 11502 594 1 109.50000 418.400000
593 11502 595 1 109.50000 418.400000
593 11502 596 1 109.50000 418.400000
594 11502 595 1 109.50000 418.400000
594 11502 596 1 109.50000 418.400000
595 11502 596 1 109.50000 418.400000
597 11503 598 1 109.50000 418.400000
597 11503 599 1 109.50000 418.400000
597 11503 600 1 109.50000 418.400000
598 11503 599 1 109.50000 418.400000
598 11503 600 1 109.50000 418.400000
599 11503 600 1 109.50000 418.400000
601 11504 602 1 109.50000 418.400000
601 11504 603 1 109.50000 418.400000
601 11504 11307 1 109.50000 418.400000
602 11504 603 1 109.50000 418.400000
602 11504 11307 1 109.50000 418.400000
603 11504 11307 1 109.50000 418.400000
604 11505 605 1 109.50000 418.400000
604 11505 606 1 109.50000 418.400000
604 11505 607 1 109.50000 418.400000
605 11505 606 1 109.50000 418.400000
605 11505 607 1 109.50000 418.400000
606 11505 607 1 109.50000 418.400000
606 11506 608 1 109.50000 418.400000
606 11506 609 1 109.50000 418.400000
606 11506 610 1 109.50000 418.400000
608 11506 609 1 109.50000 418.400000
608 11506 610 1 109.50000 418.400000
609 11506 610 1 109.50000 418.400000
611 11507 612 1 109.50000 418.400000
611 11507 613 1 109.50000 418.400000
611 11507 614 1 109.50000 418.400000
612 11507 613 1 109.50000 418.400000
612 11507 614 1 109.50000 418.400000
613 11507 614 1 109.50000 418.400000
615 11508 616 1 109.50000 418.400000
615 11508 617 1 109.50000 418.400000
615 11508 618 1 109.50000 418.400000
616 11508 617 1 109.50000 418.400000
616 11508 618 1 109.50000 418.400000
617 11508 618 1 109.50000 418.400000
619 11509 620 1 109.50000 418.400000
619 11509 621 1 109.50000 418.400000
619 11509 11308 1 109.50000 418.400000
620 11509 621 1 109.50000 418.400000
620 11509 11308 1 109.50000 418.400000
621 11509 11308 1 109.50000 418.400000
622 11510 623 1 109.50000 418.400000
622 11510 624 1 109.50000 418.400000
622 11510 625 1 109.50000 418.400000
623 11510 624 1 109.50000 418.400000
623 11510 625 1 109.50000 418.400000
624 11510 625 1 109.50000 418.400000
375 11511 626 1 109.50000 418.400000
375 11511 627 1 109.50000 418.400000
375 11511 628 1 109.50000 418.400000
626 11511 627 1 109.50000 418.400000
626 11511 628 1 109.50000 418.400000
627 11511 628 1 109.50000 418.400000
292 11512 629 1 109.50000 418.400000
292 11512 630 1 109.50000 418.400000
292 11512 631 1 109.50000 418.400000
629 11512 630 1 109.50000 418.400000
629 11512 631 1 109.50000 418.400000
630 11512 631 1 109.50000 418.400000
632 11513 633 1 109.50000 418.400000
632 11513 634 1 109.50000 418.400000
632 11513 635 1 109.50000 418.400000
633 11513 634 1 109.50000 418.400000
633 11513 635 1 109.50000 418.400000
634 11513 635 1 109.50000 418.400000
636 11514 637 1 109.50000 418.400000
636 11514 638 1 109.50000 418.400000
636 11514 639 1 109.50000 418.400000
637 11514 638 1 109.50000 418.400000
637 11514 639 1 109.50000 418.400000
638 11514 639 1 109.50000 418.400000
640 11515 641 1 109.50000 418.400000
640 11515 642 1 109.50000 418.400000
640 11515 643 1 109.50000 418.400000
641 11515 642 1 109.50000 418.400000
641 11515 643 1 109.50000 418.400000
642 11515 643 1 109.50000 418.400000
445 11516 644 1 109.50000 418.400000
445 11516 645 1 109.50000 418.400000
445 11516 646 1 109.50000 418.400000
644 11516 645 1 109.50000 418.400000
644 11516 646 1 109.50000 418.400000
645 11516 646 1 109.50000 418.400000
647 11517 648 1 109.50000 418.400000
647 11517 649 1 109.50000 418.400000
647 11517 650 1 109.50000 418.400000
648 11517 649 1 109.50000 418.400000
648 11517 650 1 109.50000 418.400000
649 11517 650 1 109.50000 418.400000
651 11518 652 1 109.50000 418.400000
651 11518 653 1 109.50000 418.400000
651 11518 654 1 109.50000 418.400000
652 11518 653 1 109.50000 418.400000
652 11518 654 1 109.50000 418.400000
653 11518 654 1 109.50000 418.400000
388 11519 629 1 109.50000 418.400000
388 11519 655 1 109.50000 418.400000
388 11519 656 1 109.50000 418.400000
629 11519 655 1 109.50000 418.400000
629 11519 656 1 109.50000 418.400000
655 11519 656 1 109.50000 418.400000
657 11520 658 1 109.50000 418.400000
657 11520 659 1 109.50000 418.400000
657 11520 4295 1 109.50000 418.400000
658 11520 659 1 109.50000 418.400000
658 11520 4295 1 109.50000 418.400000
659 11520 4295 1 109.50000 418.400000
661 11521 662 1 109.50000 418.400000
661 11521 664 1 109.50000 418.400000
661 11521 6555 1 109.50000 418.400000
662 11521 664 1 109.50000 418.400000
662 11521 6555 1 109.50000 418.400000
664 11521 6555 1 109.50000 418.400000
665 11522 667 1 109.50000 418.400000
665 11522 668 1 109.50000 418.400000
665 11522 3695 1 109.50000 418.400000
667 11522 668 1 109.50000 418.400000
667 11522 3695 1 109.50000 418.400000
668 11522 3695 1 109.50000 418.400000
669 11523 670 1 109.50000 418.400000
669 11523 10239 1 109.50000 418.400000
669 11523 11309 1 109.50000 418.400000
670 11523 10239 1 109.50000 418.400000
670 11523 11309 1 109.50000 418.400000
10239 11523 11309 1 109.50000 418.400000
671 11524 672 1 109.50000 418.400000
671 11524 674 1 109.50000 418.400000
671 11524 8622 1 109.50000 418.400000
672 11524 674 1 109.50000 418.400000
672 11524 8622 1 109.50000 418.400000
674 11524 8622 1 109.50000 418.400000
678 11525 679 1 109.50000 418.400000
678 11525 680 1 109.50000 418.400000
678 11525 850 1 109.50000 418.400000
679 11525 680 1 109.50000 418.400000
679 11525 850 1 109.50000 418.400000
680 11525 850 1 109.50000 418.400000
682 11526 684 1 109.50000 418.400000
682 11526 685 1 109.50000 418.400000
682 11526 760 1 109.50000 418.400000
684 11526 685 1 109.50000 418.400000
684 11526 760 1 109.50000 418.400000
685 11526 760 1 109.50000 418.400000
686 11527 687 1 109.50000 418.400000
686 11527 688 1 109.50000 418.400000
686 11527 689 1 109.50000 418.400000
687 11527 688 1 109.50000 418.400000
687 11527 689 1 109.50000 418.400000
688 11527 689 1 109.50000 418.400000
401 11528 690 1 109.50000 418.400000
401 11528 692 1 109.50000 418.400000
401 11528 1749 1 109.50000 418.400000
690 11528 692 1 109.50000 418.400000
690 11528 1749 1 109.50000 418.400000
692 11528 1749 1 109.50000 418.400000
693 11529 694 1 109.50000 418.400000
693 11529 695 1 109.50000 418.400000
693 11529 696 1 109.50000 418.400000
694 11529 695 1 109.50000 418.400000
694 11529 696 1 109.50000 418.400000
695 11529 696 1 109.50000 418.400000
697 11530 698 1 109.50000 418.400000
697 11530 699 1 109.50000 418.400000
697 11530 700 1 109.50000 418.400000
698 11530 699 1 109.50000 418.400000
698 11530 700 1 109.50000 418.400000
699 11530 700 1 109.50000 418.400000
176 11531 701 1 109.50000 418.400000
176 11531 702 1 109.50000 418.400000
176 11531 703 1 109.50000 418.400000
701 11531 702 1 109.50000 418.400000
701 11531 703 1 109.50000 418.400000
702 11531 703 1 109.50000 418.400000
704 11532 705 1 109.50000 418.400000
704 11532 706 1 109.50000 418.400000
704 11532 707 1 109.50000 418.400000
705 11532 706 1 109.50000 418.400000
705 11532 707 1 109.50000 418.400000
706 11532 707 1 109.50000 418.400000
708 11533 709 1 109.50000 418.400000
708 11533 710 1 109.50000 418.400000
708 11533 711 1 109.50000 418.400000
709 11533 710 1 109.50000 418.400000
709 11533 711 1 109.50000 418.400000
710 11533 711 1 109.50000 418.400000
712 11534 713 1 109.50000 418.400000
712 11534 714 1 109.50000 418.400000
712 11534 7002 1 109.50000 418.400000
713 11534 714 1 109.50000 418.400000
713 11534 7002 1 109.50000 418.400000
714 11534 7002 1 109.50000 418.400000
717 11535 718 1 109.50000 418.400000
717 11535 3464 1 109.50000 418.400000
717 11535 7773 1 109.50000 418.400000
718 11535 3464 1 109.50000 418.400000
718 11535 7773 1 109.50000 418.400000
3464 11535 7773 1 109.50000 418.400000
719 11536 720 1 109.50000 418.400000
719 11536 721 1 109.50000 418.400000
719 11536 11310 1 109.50000 418.400000
720 11536 721 1 109.50000 418.400000
720 11536 11310 1 109.50000 418.400000
721 11536 11310 1 109.50000 418.400000
722 11537 8412 1 109.50000 418.400000
722 11537 11150 1 109.50000 418.400000
722 11537 11311 1 109.50000 418.400000
8412 11537 11150 1 109.50000 418.400000
8412 11537 11311 1 109.50000 418.400000
11150 11537 11311 1 109.50000 418.400000
725 11538 726 1 109.50000 418.400000
725 11538 727 1 109.50000 418.400000
725 11538 728 1 109.50000 418.400000
726 11538 727 1 109.50000 418.400000
726 11538 728 1 109.50000 418.400000
727 11538 728 1 109.50000 418.400000
729 11539 730 1 109.50000 418.400000
729 11539 731 1 109.50000 418.400000
729 11539 732 1 109.50000 418.400000
730 11539 731 1 109.50000 418.400000
730 11539 732 1 109.50000 418.400000
731 11539 732 1 109.50000 418.400000
733 11540 734 1 109.50000 418.400000
733 11540 735 1 109.50000 418.400000
733 11540 736 1 109.50000 418.400000
734 11540 735 1 109.50000 418.400000
734 11540 736 1 109.50000 418.400000
735 11540 736 1 109.50000 418.400000
737 11541 738 1 109.50000 418.400000
737 11541 739 1 109.50000 418.400000
737 11541 740 1 109.50000 418.400000
738 11541 739 1 109.50000 418.400000
738 11541 740 1 109.50000 418.400000
739 11541 740 1 109.50000 418.400000
741 11542 742 1 109.50000 418.400000
741 11542 743 1 109.50000 418.400000
741 11542 744 1 109.50000 418.400000
742 11542 743 1 109.50000 418.400000
742 11542 744 1 109.50000 418.400000
743 11542 744 1 109.50000 418.400000
745 11543 746 1 109.50000 418.400000
745 11543 747 1 109.50000 418.400000
745 11543 748 1 109.50000 418.400000
746 11543 747 1 109.50000 418.400000
746 11543 748 1 109.50000 418.400000
747 11543 748 1 109.50000 418.400000
749 11544 750 1 109.50000 418.400000
749 11544 751 1 109.50000 418.400000
749 11544 752 1 109.50000 418.400000
750 11544 751 1 109.50000 418.400000
750 11544 752 1 109.50000 418.400000
751 11544 752 1 109.50000 418.400000
753 11545 754 1 109.50000 418.400000
753 11545 755 1 109.50000 418.400000
753 11545 756 1 109.50000 418.400000
754 11545 755 1 109.50000 418.400000
754 11545 756 1 109.50000 418.400000
755 11545 756 1 109.50000 418.400000
757 11546 758 1 109.50000 418.400000
757 11546 759 1 109.50000 418.400000
757 11546 760 1 109.50000 418.400000
758 11546 759 1 109.50000 418.400000
758 11546 760 1 109.50000 418.400000
759 11546 760 1 109.50000 418.400000
761 11547 762 1 109.50000 418.400000
761 11547 763 1 109.50000 418.400000
761 11547 764 1 109.50000 418.400000
762 11547 763 1 109.50000 418.400000
762 11547 764 1 109.50000 418.400000
763 11547 764 1 109.50000 418.400000
765 11548 766 1 109.50000 418.400000
765 11548 767 1 109.50000 418.400000
765 11548 768 1 109.50000 418.400000
766 11548 767 1 109.50000 418.400000
766 11548 768 1 109.50000 418.400000
767 11548 768 1 109.50000 418.400000
769 11549 770 1 109.50000 418.400000
769 11549 771 1 109.50000 418.400000
769 11549 772 1 109.50000 418.400000
770 11549 771 1 109.50000 418.400000
770 11549 772 1 109.50000 418.400000
771 11549 772 1 109.50000 418.400000
65 11550 773 1 109.50000 418.400000
65 11550 774 1 109.50000 418.400000
65 11550 775 1 109.50000 418.400000
773 11550 774 1 109.50000 418.400000
773 11550 775 1 109.50000 418.400000
774 11550 775 1 109.50000 418.400000
362 11551 776 1 109.50000 418.400000
362 11551 777 1 109.50000 418.400000
362 11551 2574 1 109.50000 418.400000
776 11551 777 1 109.50000 418.400000
776 11551 2574 1 109.50000 418.400000
777 11551 2574 1 109.50000 418.400000
779 11552 780 1 109.50000 418.400000
779 11552 781 1 109.50000 418.400000
779 11552 782 1 109.50000 418.400000
780 11552 781 1 109.50000 418.400000
780 11552 782 1 109.50000 418.400000
781 11552 782 1 109.50000 418.400000
783 11553 784 1 109.50000 418.400000
783 11553 785 1 109.50000 418.400000
783 11553 11312 1 109.50000 418.400000
784 11553 785 1 109.50000 418.400000
784 11553 11312 1 109.50000 418.400000
785 11553 11312 1 109.50000 418.400000
786 11554 787 1 109.50000 418.400000
786 11554 788 1 109.50000 418.400000
786 11554 789 1 109.50000 418.400000
787 11554 788 1 109.50000 418.400000
787 11554 789 1 109.50000 418.400000
788 11554 789 1 109.50000 418.400000
790 11555 791 1 109.50000 418.400000
790 11555 792 1 109.50000 418.400000
790 11555 11313 1 109.50000 418.400000
791 11555 792 1 109.50000 418.400000
791 11555 11313 1 109.50000 418.400000
792 11555 11313 1 109.50000 418.400000
599 11556 794 1 109.50000 418.400000
599 11556 795 1 109.50000 418.400000
599 11556 796 1 109.50000 418.400000
794 11556 795 1 109.50000 418.400000
794 11556 796 1 109.50000 418.400000
795 11556 796 1 109.50000 418.400000
797 11557 798 1 109.50000 418.400000
797 11557 799 1 109.50000 418.400000
797 11557 11314 1 109.50000 418.400000
798 11557 799 1 109.50000 418.400000
798 11557 11314 1 109.50000 418.400000
799 11557 11314 1 109.50000 418.400000
800 11558 801 1 109.50000 418.400000
800 11558 11151 1 109.50000 418.400000
800 11558 11315 1 109.50000 418.400000
801 11558 11151 1 109.50000 418.400000
801 11558 11315 1 109.50000 418.400000
11151 11558 11315 1 109.50000 418.400000
802 11559 803 1 109.50000 418.400000
802 11559 804 1 109.50000 418.400000
802 11559 805 1 109.50000 418.400000
803 11559 804 1 109.50000 418.400000
803 11559 805 1 109.50000 418.400000
804 11559 805 1 109.50000 418.400000
806 11560 807 1 109.50000 418.400000
806 11560 808 1 109.50000 418.400000
806 11560 2074 1 109.50000 418.400000
807 11560 808 1 109.50000 418.400000
807 11560 2074 1 109.50000 418.400000
808 11560 2074 1 109.50000 418.400000
813 11561 843 1 109.50000 418.400000
813 11561 5920 1 109.50000 418.400000
813 11561 7740 1 109.50000 418.400000
843 11561 5920 1 109.50000 418.400000
843 11561 7740 1 109.50000 418.400000
5920 11561 7740 1 109.50000 418.400000
814 11562 815 1 109.50000 418.400000
814 11562 816 1 109.50000 418.400000
814 11562 817 1 109.50000 418.400000
815 11562 816 1 109.50000 418.400000
815 11562 817 1 109.50000 418.400000
816 11562 817 1 109.50000 418.400000
818 11563 819 1 109.50000 418.400000
818 11563 820 1 109.50000 418.400000
818 11563 821 1 109.50000 418.400000
819 11563 820 1 109.50000 418.400000
819 11563 821 1 109.50000 418.400000
820 11563 821 1 109.50000 418.400000
404 11564 822 1 109.50000 418.400000
404 11564 823 1 109.50000 418.400000
404 11564 824 1 109.50000 418.400000
822 11564 823 1 109.50000 418.400000
822 11564 824 1 109.50000 418.400000
823 11564 824 1 109.50000 418.400000
825 11565 827 1 109.50000 418.400000
825 11565 828 1 109.50000 418.400000
825 11565 6852 1 109.50000 418.400000
827 11565 828 1 109.50000 418.400000
827 11565 6852 1 109.50000 418.400000
828 11565 6852 1 109.50000 418.400000
829 11566 830 1 109.50000 418.400000
829 11566 831 1 109.50000 418.400000
829 11566 832 1 109.50000 418.400000
830 11566 831 1 109.50000 418.400000
830 11566 832 1 109.50000 418.400000
831 11566 832 1 109.50000 418.400000
833 11567 834 1 109.50000 418.400000
833 11567 835 1 109.50000 418.400000
833 11567 836 1 109.50000 418.400000
834 11567 835 1 109.50000 418.400000
834 11567 836 1 109.50000 418.400000
835 11567 836 1 109.50000 418.400000
837 11568 838 1 109.50000 418.400000
837 11568 839 1 109.50000 418.400000
837 11568 11316 1 109.50000 418.400000
838 11568 839 1 109.50000 418.400000
838 11568 11316 1 109.50000 418.400000
839 11568 11316 1 109.50000 418.400000
840 11569 8869 1 109.50000 418.400000
840 11569 11152 1 109.50000 418.400000
840 11569 11317 1 109.50000 418.400000
8869 11569 11152 1 109.50000 418.400000
8869 11569 11317 1 109.50000 418.400000
11152 11569 11317 1 109.50000 418.400000
841 11570 842 1 109.50000 418.400000
841 11570 843 1 109.50000 418.400000
841 11570 844 1 109.50000 418.400000
842 11570 843 1 109.50000 418.400000
842 11570 844 1 109.50000 418.400000
843 11570 844 1 109.50000 418.400000
430 11571 846 1 109.50000 418.400000
430 11571 847 1 109.50000 418.400000
430 11571 848 1 109.50000 418.400000
846 11571 847 1 109.50000 418.400000
846 11571 848 1 109.50000 418.400000
847 11571 848 1 109.50000 418.400000
678 11572 681 1 109.50000 418.400000
678 11572 849 1 109.50000 418.400000
678 11572 851 1 109.50000 418.400000
681 11572 849 1 109.50000 418.400000
681 11572 851 1 109.50000 418.400000
849 11572 851 1 109.50000 418.400000
852 11573 853 1 109.50000 418.400000
852 11573 854 1 109.50000 418.400000
852 11573 855 1 109.50000 418.400000
853 11573 854 1 109.50000 418.400000
853 11573 855 1 109.50000 418.400000
854 11573 855 1 109.50000 418.400000
856 11574 857 1 109.50000 418.400000
856 11574 858 1 109.50000 418.400000
856 11574 859 1 109.50000 418.400000
857 11574 858 1 109.50000 418.400000
857 11574 859 1 109.50000 418.400000
858 11574 859 1 109.50000 418.400000
860 11575 861 1 109.50000 418.400000
860 11575 862 1 109.50000 418.400000
860 11575 863 1 109.50000 418.400000
861 11575 862 1 109.50000 418.400000
861 11575 863 1 109.50000 418.400000
862 11575 863 1 109.50000 418.400000
864 11576 865 1 109.50000 418.400000
864 11576 867 1 109.50000 418.400000
864 11576 986 1 109.50000 418.400000
865 11576 867 1 109.50000 418.400000
865 11576 986 1 109.50000 418.400000
867 11576 986 1 109.50000 418.400000
723 11577 868 1 109.50000 418.400000
723 11577 869 1 109.50000 418.400000
723 11577 870 1 109.50000 418.400000
868 11577 869 1 109.50000 418.400000
868 11577 870 1 109.50000 418.400000
869 11577 870 1 109.50000 418.400000
871 11578 872 1 109.50000 418.400000
871 11578 873 1 109.50000 418.400000
871 11578 874 1 109.50000 418.400000
872 11578 873 1 109.50000 418.400000
872 11578 874 1 109.50000 418.400000
873 11578 874 1 109.50000 418.400000
875 11579 876 1 109.50000 418.400000
875 11579 877 1 109.50000 418.400000
875 11579 878 1 109.50000 418.400000
876 11579 877 1 109.50000 418.400000
876 11579 878 1 109.50000 418.400000
877 11579 878 1 109.50000 418.400000
879 11580 880 1 109.50000 418.400000
879 11580 881 1 109.50000 418.400000
879 11580 882 1 109.50000 418.400000
880 11580 881 1 109.50000 418.400000
880 11580 882 1 109.50000 418.400000
881 11580 882 1 109.50000 418.400000
883 11581 884 1 109.50000 418.400000
883 11581 885 1 109.50000 418.400000
883 11581 886 1 109.50000 418.400000
884 11581 885 1 109.50000 418.400000
884 11581 886 1 109.50000 418.400000
885 11581 886 1 109.50000 418.400000
887 11582 888 1 109.50000 418.400000
887 11582 889 1 109.50000 418.400000
887 11582 11170 1 109.50000 418.400000
888 11582 889 1 109.50000 418.400000
888 11582 11170 1 109.50000 418.400000
889 11582 11170 1 109.50000 418.400000
890 11583 891 1 109.50000 418.400000
890 11583 892 1 109.50000 418.400000
890 11583 893 1 109.50000 418.400000
891 11583 892 1 109.50000 418.400000
891 11583 893 1 109.50000 418.400000
892 11583 893 1 109.50000 418.400000
894 11584 1220 1 109.50000 418.400000
894 11584 4030 1 109.50000 418.400000
894 11584 9955 1 109.50000 418.400000
1220 11584 4030 1 109.50000 418.400000
1220 11584 9955 1 109.50000 418.400000
4030 11584 9955 1 109.50000 418.400000
898 11585 899 1 109.50000 418.400000
898 11585 900 1 109.50000 418.400000
898 11585 901 1 109.50000 418.400000
899 11585 900 1 109.50000 418.400000
899 11585 901 1 109.50000 418.400000
900 11585 901 1 109.50000 418.400000
904 11586 1030 1 109.50000 418.400000
904 11586 4463 1 109.50000 418.400000
904 11586 5476 1 109.50000 418.400000
1030 11586 4463 1 109.50000 418.400000
1030 11586 5476 1 109.50000 418.400000
4463 11586 5476 1 109.50000 418.400000
907 11587 908 1 109.50000 418.400000
907 11587 909 1 109.50000 418.400000
907 11587 5450 1 109.50000 418.400000
908 11587 909 1 109.50000 418.400000
908 11587 5450 1 109.50000 418.400000
909 11587 5450 1 109.50000 418.400000
910 11588 911 1 109.50000 418.400000
910 11588 912 1 109.50000 418.400000
910 11588 913 1 109.50000 418.400000
911 11588 912 1 109.50000 418.400000
911 11588 913 1 109.50000 418.400000
912 11588 913 1 109.50000 418.400000
914 11589 915 1 109.50000 418.400000
914 11589 916 1 109.50000 418.400000
914 11589 917 1 109.50000 418.400000
915 11589 916 1 109.50000 418.400000
915 11589 917 1 109.50000 418.400000
916 11589 917 1 109.50000 418.400000
488 11590 918 1 109.50000 418.400000
488 11590 919 1 109.50000 418.400000
488 11590 920 1 109.50000 418.400000
918 11590 919 1 109.50000 418.400000
918 11590 920 1 109.50000 418.400000
919 11590 920 1 109.50000 418.400000
921 11591 922 1 109.50000 418.400000
921 11591 923 1 109.50000 418.400000
921 11591 924 1 109.50000 418.400000
922 11591 923 1 109.50000 418.400000
922 11591 924 1 109.50000 418.400000
923 11591 924 1 109.50000 418.400000
925 11592 926 1 109.50000 418.400000
925 11592 927 1 109.50000 418.400000
925 11592 928 1 109.50000 418.400000
926 11592 927 1 109.50000 418.400000
926 11592 928 1 109.50000 418.400000
927 11592 928 1 109.50000 418.400000
929 11593 930 1 109.50000 418.400000
929 11593 931 1 109.50000 418.400000
929 11593 932 1 109.50000 418.400000
930 11593 931 1 109.50000 418.400000
930 11593 932 1 109.50000 418.400000
931 11593 932 1 109.50000 418.400000
933 11594 934 1 109.50000 418.400000
933 11594 935 1 109.50000 418.400000
933 11594 936 1 109.50000 418.400000
934 11594 935 1 109.50000 418.400000
934 11594 936 1 109.50000 418.400000
935 11594 936 1 109.50000 418.400000
937 11595 938 1 109.50000 418.400000
937 11595 939 1 109.50000 418.400000
937 11595 940 1 109.50000 418.400000
938 11595 939 1 109.50000 418.400000
938 11595 940 1 109.50000 418.400000
939 11595 940 1 109.50000 418.400000
941 11596 942 1 109.50000 418.400000
941 11596 943 1 109.50000 418.400000
941 11596 944 1 109.50000 418.400000
942 11596 943 1 109.50000 418.400000
942 11596 944 1 109.50000 418.400000
943 11596 944 1 109.50000 418.400000
945 11597 946 1 109.50000 418.400000
945 11597 947 1 109.50000 418.400000
945 11597 948 1 109.50000 418.400000
946 11597 947 1 109.50000 418.400000
946 11597 948 1 109.50000 418.400000
947 11597 948 1 109.50000 418.400000
950 11598 951 1 109.50000 418.400000
950 11598 952 1 109.50000 418.400000
950 11598 8456 1 109.50000 418.400000
951 11598 952 1 109.50000 418.400000
951 11598 8456 1 109.50000 418.400000
952 11598 8456 1 109.50000 418.400000
953 11599 954 1 109.50000 418.400000
953 11599 955 1 109.50000 418.400000
953 11599 956 1 109.50000 418.400000
954 11599 955 1 109.50000 418.400000
954 11599 956 1 109.50000 418.400000
955 11599 956 1 109.50000 418.400000
957 11600 958 1 109.50000 418.400000
957 11600 1203 1 109.50000 418.400000
957 11600 3770 1 109.50000 418.400000
958 11600 1203 1 109.50000 418.400000
958 11600 3770 1 109.50000 418.400000
1203 11600 3770 1 109.50000 418.400000
925 11601 961 1 109.50000 418.400000
925 11601 962 1 109.50000 418.400000
925 11601 963 1 109.50000 418.400000
961 11601 962 1 109.50000 418.400000
961 11601 963 1 109.50000 418.400000
962 11601 963 1 109.50000 418.400000
966 11602 967 1 109.50000 418.400000
966 11602 968 1 109.50000 418.400000
966 11602 969 1 109.50000 418.400000
967 11602 968 1 109.50000 418.400000
967 11602 969 1 109.50000 418.400000
968 11602 969 1 109.50000 418.400000
970 11603 971 1 109.50000 418.400000
970 11603 972 1 109.50000 418.400000
970 11603 973 1 109.50000 418.400000
971 11603 972 1 109.50000 418.400000
971 11603 973 1 109.50000 418.400000
972 11603 973 1 109.50000 418.400000
974 11604 975 1 109.50000 418.400000
974 11604 976 1 109.50000 418.400000
974 11604 977 1 109.50000 418.400000
975 11604 976 1 109.50000 418.400000
975 11604 977 1 109.50000 418.400000
976 11604 977 1 109.50000 418.400000
978 11605 979 1 109.50000 418.400000
978 11605 980 1 109.50000 418.400000
978 11605 11318 1 109.50000 418.400000
979 11605 980 1 109.50000 418.400000
979 11605 11318 1 109.50000 418.400000
980 11605 11318 1 109.50000 418.400000
981 11606 983 1 109.50000 418.400000
981 11606 984 1 109.50000 418.400000
981 11606 5879 1 109.50000 418.400000
983 11606 984 1 109.50000 418.400000
983 11606 5879 1 109.50000 418.400000
984 11606 5879 1 109.50000 418.400000
865 11607 866 1 109.50000 418.400000
865 11607 987 1 109.50000 418.400000
865 11607 988 1 109.50000 418.400000
866 11607 987 1 109.50000 418.400000
866 11607 988 1 109.50000 418.400000
987 11607 988 1 109.50000 418.400000
989 11608 990 1 109.50000 418.400000
989 11608 991 1 109.50000 418.400000
989 11608 992 1 109.50000 418.400000
990 11608 991 1 109.50000 418.400000
990 11608 992 1 109.50000 418.400000
991 11608 992 1 109.50000 418.400000
331 11609 993 1 109.50000 418.400000
331 11609 994 1 109.50000 418.400000
331 11609 995 1 109.50000 418.400000
993 11609 994 1 109.50000 418.400000
993 11609 995 1 109.50000 418.400000
994 11609 995 1 109.50000 418.400000
996 11610 997 1 109.50000 418.400000
996 11610 998 1 109.50000 418.400000
996 11610 999 1 109.50000 418.400000
997 11610 998 1 109.50000 418.400000
997 11610 999 1 109.50000 418.400000
998 11610 999 1 109.50000 418.400000
1000 11611 1001 1 109.50000 418.400000
1000 11611 1002 1 109.50000 418.400000
1000 11611 1003 1 109.50000 418.400000
1001 11611 1002 1 109.50000 418.400000
1001 11611 1003 1 109.50000 418.400000
1002 11611 1003 1 109.50000 418.400000
1004 11612 1005 1 109.50000 418.400000
1004 11612 1006 1 109.50000 418.400000
1004 11612 1007 1 109.50000 418.400000
1005 11612 1006 1 109.50000 418.400000
1005 11612 1007 1 109.50000 418.400000
1006 11612 1007 1 109.50000 418.400000
1008 11613 1009 1 109.50000 418.400000
1008 11613 1011 1 109.50000 418.400000
1008 11613 9846 1 109.50000 418.400000
1009 11613 1011 1 109.50000 418.400000
1009 11613 9846 1 109.50000 418.400000
1011 11613 9846 1 109.50000 418.400000
1012 11614 1013 1 109.50000 418.400000
1012 11614 1014 1 109.50000 418.400000
1012 11614 1015 1 109.50000 418.400000
1013 11614 1014 1 109.50000 418.400000
1013 11614 1015 1 109.50000 418.400000
1014 11614 1015 1 109.50000 418.400000
1016 11615 1017 1 109.50000 418.400000
1016 11615 1018 1 109.50000 418.400000
1016 11615 1019 1 109.50000 418.400000
1017 11615 1018 1 109.50000 418.400000
1017 11615 1019 1 109.50000 418.400000
1018 11615 1019 1 109.50000 418.400000
953 11616 1020 1 109.50000 418.400000
953 11616 1021 1 109.50000 418.400000
953 11616 1022 1 109.50000 418.400000
1020 11616 1021 1 109.50000 418.400000
1020 11616 1022 1 109.50000 418.400000
1021 11616 1022 1 109.50000 418.400000
1023 11617 1024 1 109.50000 418.400000
1023 11617 1025 1 109.50000 418.400000
1023 11617 1026 1 109.50000 418.400000
1024 11617 1025 1 109.50000 418.400000
1024 11617 1026 1 109.50000 418.400000
1025 11617 1026 1 109.50000 418.400000
1027 11618 1028 1 109.50000 418.400000
1027 11618 1029 1 109.50000 418.400000
1027 11618 11278 1 109.50000 418.400000
1028 11618 1029 1 109.50000 418.400000
1028 11618 11278 1 109.50000 418.400000
1029 11618 11278 1 109.50000 418.400000
1030 11619 1031 1 109.50000 418.400000
1030 11619 1032 1 109.50000 418.400000
1030 11619 1033 1 109.50000 418.400000
1031 11619 1032 1 109.50000 418.400000
1031 11619 1033 1 109.50000 418.400000
1032 11619 1033 1 109.50000 418.400000
1034 11620 1035 1 109.50000 418.400000
1034 11620 5178 1 109.50000 418.400000
1034 11620 11319 1 109.50000 418.400000
1035 11620 5178 1 109.50000 418.400000
1035 11620 11319 1 109.50000 418.400000
5178 11620 11319 1 109.50000 418.400000
1039 11621 1312 1 109.50000 418.400000
1039 11621 2942 1 109.50000 418.400000
1039 11621 10422 1 109.50000 418.400000
1312 11621 2942 1 109.50000 418.400000
1312 11621 10422 1 109.50000 418.400000
2942 11621 10422 1 109.50000 418.400000
869 11622 1040 1 109.50000 418.400000
869 11622 1041 1 109.50000 418.400000
869 11622 1042 1 109.50000 418.400000
1040 11622 1041 1 109.50000 418.400000
1040 11622 1042 1 109.50000 418.400000
1041 11622 1042 1 109.50000 418.400000
1042 11623 1043 1 109.50000 418.400000
1042 11623 1044 1 109.50000 418.400000
1042 11623 11320 1 109.50000 418.400000
1043 11623 1044 1 109.50000 418.400000
1043 11623 11320 1 109.50000 418.400000
1044 11623 11320 1 109.50000 418.400000
1045 11624 1046 1 109.50000 418.400000
1045 11624 1047 1 109.50000 418.400000
1045 11624 1048 1 109.50000 418.400000
1046 11624 1047 1 109.50000 418.400000
1046 11624 1048 1 109.50000 418.400000
1047 11624 1048 1 109.50000 418.400000
398 11625 1049 1 109.50000 418.400000
398 11625 1050 1 109.50000 418.400000
398 11625 1051 1 109.50000 418.400000
1049 11625 1050 1 109.50000 418.400000
1049 11625 1051 1 109.50000 418.400000
1050 11625 1051 1 109.50000 418.400000
1052 11626 1053 1 109.50000 418.400000
1052 11626 1054 1 109.50000 418.400000
1052 11626 1055 1 109.50000 418.400000
1053 11626 1054 1 109.50000 418.400000
1053 11626 1055 1 109.50000 418.400000
1054 11626 1055 1 109.50000 418.400000
1056 11627 1057 1 109.50000 418.400000
1056 11627 1058 1 109.50000 418.400000
1056 11627 1059 1 109.50000 418.400000
1057 11627 1058 1 109.50000 418.400000
1057 11627 1059 1 109.50000 418.400000
1058 11627 1059 1 109.50000 418.400000
856 11628 1060 1 109.50000 418.400000
856 11628 1061 1 109.50000 418.400000
856 11628 8585 1 109.50000 418.400000
1060 11628 1061 1 109.50000 418.400000
1060 11628 8585 1 109.50000 418.400000
1061 11628 8585 1 109.50000 418.400000
1064 11629 6547 1 109.50000 418.400000
1064 11629 6548 1 109.50000 418.400000
1064 11629 6549 1 109.50000 418.400000
6547 11629 6548 1 109.50000 418.400000
6547 11629 6549 1 109.50000 418.400000
6548 11629 6549 1 109.50000 418.400000
1066 11630 1067 1 109.50000 418.400000
1066 11630 1068 1 109.50000 418.400000
1066 11630 1069 1 109.50000 418.400000
1067 11630 1068 1 109.50000 418.400000
1067 11630 1069 1 109.50000 418.400000
1068 11630 1069 1 109.50000 418.400000
570 11631 1070 1 109.50000 418.400000
570 11631 1071 1 109.50000 418.400000
570 11631 1072 1 109.50000 418.400000
1070 11631 1071 1 109.50000 418.400000
1070 11631 1072 1 109.50000 418.400000
1071 11631 1072 1 109.50000 418.400000
1073 11632 1074 1 109.50000 418.400000
1073 11632 1075 1 109.50000 418.400000
1073 11632 1076 1 109.50000 418.400000
1074 11632 1075 1 109.50000 418.400000
1074 11632 1076 1 109.50000 418.400000
1075 11632 1076 1 109.50000 418.400000
1077 11633 1078 1 109.50000 418.400000
1077 11633 1079 1 109.50000 418.400000
1077 11633 1080 1 109.50000 418.400000
1078 11633 1079 1 109.50000 418.400000
1078 11633 1080 1 109.50000 418.400000
1079 11633 1080 1 109.50000 418.400000
1081 11634 1082 1 109.50000 418.400000
1081 11634 1083 1 109.50000 418.400000
1081 11634 1084 1 109.50000 418.400000
1082 11634 1083 1 109.50000 418.400000
1082 11634 1084 1 109.50000 418.400000
1083 11634 1084 1 109.50000 418.400000
1085 11635 1086 1 109.50000 418.400000
1085 11635 1087 1 109.50000 418.400000
1085 11635 1088 1 109.50000 418.400000
1086 11635 1087 1 109.50000 418.400000
1086 11635 1088 1 109.50000 418.400000
1087 11635 1088 1 109.50000 418.400000
1089 11636 1090 1 109.50000 418.400000
1089 11636 1091 1 109.50000 418.400000
1089 11636 1092 1 109.50000 418.400000
1090 11636 1091 1 109.50000 418.400000
1090 11636 1092 1 109.50000 418.400000
1091 11636 1092 1 109.50000 418.400000
609 11637 1093 1 109.50000 418.400000
609 11637 1094 1 109.50000 418.400000
609 11637 1095 1 109.50000 418.400000
1093 11637 1094 1 109.50000 418.400000
1093 11637 1095 1 109.50000 418.400000
1094 11637 1095 1 109.50000 418.400000
1096 11638 1097 1 109.50000 418.400000
1096 11638 1098 1 109.50000 418.400000
1096 11638 1099 1 109.50000 418.400000
1097 11638 1098 1 109.50000 418.400000
1097 11638 1099 1 109.50000 418.400000
1098 11638 1099 1 109.50000 418.400000
1100 11639 1101 1 109.50000 418.400000
1100 11639 1102 1 109.50000 418.400000
1100 11639 1103 1 109.50000 418.400000
1101 11639 1102 1 109.50000 418.400000
1101 11639 1103 1 109.50000 418.400000
1102 11639 1103 1 109.50000 418.400000
101 11640 1104 1 109.50000 418.400000
101 11640 1105 1 109.50000 418.400000
101 11640 1106 1 109.50000 418.400000
1104 11640 1105 1 109.50000 418.400000
1104 11640 1106 1 109.50000 418.400000
1105 11640 1106 1 109.50000 418.400000
1107 11641 1647 1 109.50000 418.400000
1107 11641 1649 1 109.50000 418.400000
1107 11641 3057 1 109.50000 418.400000
1647 11641 1649 1 109.50000 418.400000
1647 11641 3057 1 109.50000 418.400000
1649 11641 3057 1 109.50000 418.400000
1110 11642 1111 1 109.50000 418.400000
1110 11642 1112 1 109.50000 418.400000
1110 11642 11321 1 109.50000 418.400000
1111 11642 1112 1 109.50000 418.400000
1111 11642 11321 1 109.50000 418.400000
1112 11642 11321 1 109.50000 418.400000
1113 11643 1115 1 109.50000 418.400000
1113 11643 1116 1 109.50000 418.400000
1113 11643 4528 1 109.50000 418.400000
1115 11643 1116 1 109.50000 418.400000
1115 11643 4528 1 109.50000 418.400000
1116 11643 4528 1 109.50000 418.400000
1117 11644 1118 1 109.50000 418.400000
1117 11644 1119 1 109.50000 418.400000
1117 11644 1120 1 109.50000 418.400000
1118 11644 1119 1 109.50000 418.400000
1118 11644 1120 1 109.50000 418.400000
1119 11644 1120 1 109.50000 418.400000
1121 11645 1122 1 109.50000 418.400000
1121 11645 1123 1 109.50000 418.400000
1121 11645 1124 1 109.50000 418.400000
1122 11645 1123 1 109.50000 418.400000
1122 11645 1124 1 109.50000 418.400000
1123 11645 1124 1 109.50000 418.400000
1008 11646 1125 1 109.50000 418.400000
1008 11646 1126 1 109.50000 418.400000
1008 11646 1127 1 109.50000 418.400000
1125 11646 1126 1 109.50000 418.400000
1125 11646 1127 1 109.50000 418.400000
1126 11646 1127 1 109.50000 418.400000
758 11647 992 1 109.50000 418.400000
758 11647 1128 1 109.50000 418.400000
758 11647 1129 1 109.50000 418.400000
992 11647 1128 1 109.50000 418.400000
992 11647 1129 1 109.50000 418.400000
1128 11647 1129 1 109.50000 418.400000
553 11648 555 1 109.50000 418.400000
553 11648 1130 1 109.50000 418.400000
553 11648 1132 1 109.50000 418.400000
555 11648 1130 1 109.50000 418.400000
555 11648 1132 1 109.50000 418.400000
1130 11648 1132 1 109.50000 418.400000
1133 11649 1134 1 109.50000 418.400000
1133 11649 1135 1 109.50000 418.400000
1133 11649 1136 1 109.50000 418.400000
1134 11649 1135 1 109.50000 418.400000
1134 11649 1136 1 109.50000 418.400000
1135 11649 1136 1 109.50000 418.400000
1138 11650 1139 1 109.50000 418.400000
1138 11650 1140 1 109.50000 418.400000
1138 11650 1141 1 109.50000 418.400000
1139 11650 1140 1 109.50000 418.400000
1139 11650 1141 1 109.50000 418.400000
1140 11650 1141 1 109.50000 418.400000
1142 11651 1143 1 109.50000 418.400000
1142 11651 1144 1 109.50000 418.400000
1142 11651 1145 1 109.50000 418.400000
1143 11651 1144 1 109.50000 418.400000
1143 11651 1145 1 109.50000 418.400000
1144 11651 1145 1 109.50000 418.400000
1146 11652 1147 1 109.50000 418.400000
1146 11652 1148 1 109.50000 418.400000
1146 11652 1149 1 109.50000 418.400000
1147 11652 1148 1 109.50000 418.400000
1147 11652 1149 1 109.50000 418.400000
1148 11652 1149 1 109.50000 418.400000
151 11653 1150 1 109.50000 418.400000
151 11653 1152 1 109.50000 418.400000
151 11653 7371 1 109.50000 418.400000
1150 11653 1152 1 109.50000 418.400000
1150 11653 7371 1 109.50000 418.400000
1152 11653 7371 1 109.50000 418.400000
1153 11654 1154 1 109.50000 418.400000
1153 11654 1155 1 109.50000 418.400000
1153 11654 1156 1 109.50000 418.400000
1154 11654 1155 1 109.50000 418.400000
1154 11654 1156 1 109.50000 418.400000
1155 11654 1156 1 109.50000 418.400000
941 11655 1157 1 109.50000 418.400000
941 11655 1158 1 109.50000 418.400000
941 11655 1159 1 109.50000 418.400000
1157 11655 1158 1 109.50000 418.400000
1157 11655 1159 1 109.50000 418.400000
1158 11655 1159 1 109.50000 418.400000
1161 11656 1162 1 109.50000 418.400000
1161 11656 6020 1 109.50000 418.400000
1161 11656 6021 1 109.50000 418.400000
1162 11656 6020 1 109.50000 418.400000
1162 11656 6021 1 109.50000 418.400000
6020 11656 6021 1 109.50000 418.400000
1164 11657 1165 1 109.50000 418.400000
1164 11657 1166 1 109.50000 418.400000
1164 11657 1167 1 109.50000 418.400000
1165 11657 1166 1 109.50000 418.400000
1165 11657 1167 1 109.50000 418.400000
1166 11657 1167 1 109.50000 418.400000
1168 11658 1169 1 109.50000 418.400000
1168 11658 1170 1 109.50000 418.400000
1168 11658 1171 1 109.50000 418.400000
1169 11658 1170 1 109.50000 418.400000
1169 11658 1171 1 109.50000 418.400000
1170 11658 1171 1 109.50000 418.400000
1172 11659 1173 1 109.50000 418.400000
1172 11659 1174 1 109.50000 418.400000
1172 11659 1175 1 109.50000 418.400000
1173 11659 1174 1 109.50000 418.400000
1173 11659 1175 1 109.50000 418.400000
1174 11659 1175 1 109.50000 418.400000
531 11660 1176 1 109.50000 418.400000
531 11660 1177 1 109.50000 418.400000
531 11660 1178 1 109.50000 418.400000
1176 11660 1177 1 109.50000 418.400000
1176 11660 1178 1 109.50000 418.400000
1177 11660 1178 1 109.50000 418.400000
1179 11661 1180 1 109.50000 418.400000
1179 11661 11154 1 109.50000 418.400000
1179 11661 11322 1 109.50000 418.400000
1180 11661 11154 1 109.50000 418.400000
1180 11661 11322 1 109.50000 418.400000
11154 11661 11322 1 109.50000 418.400000
1181 11662 1182 1 109.50000 418.400000
1181 11662 1183 1 109.50000 418.400000
1181 11662 1184 1 109.50000 418.400000
1182 11662 1183 1 109.50000 418.400000
1182 11662 1184 1 109.50000 418.400000
1183 11662 1184 1 109.50000 418.400000
1185 11663 1186 1 109.50000 418.400000
1185 11663 1187 1 109.50000 418.400000
1185 11663 1188 1 109.50000 418.400000
1186 11663 1187 1 109.50000 418.400000
1186 11663 1188 1 109.50000 418.400000
1187 11663 1188 1 109.50000 418.400000
1189 11664 1190 1 109.50000 418.400000
1189 11664 1191 1 109.50000 418.400000
1189 11664 5161 1 109.50000 418.400000
1190 11664 1191 1 109.50000 418.400000
1190 11664 5161 1 109.50000 418.400000
1191 11664 5161 1 109.50000 418.400000
1193 11665 1194 1 109.50000 418.400000
1193 11665 1195 1 109.50000 418.400000
1193 11665 1196 1 109.50000 418.400000
1194 11665 1195 1 109.50000 418.400000
1194 11665 1196 1 109.50000 418.400000
1195 11665 1196 1 109.50000 418.400000
1143 11666 1197 1 109.50000 418.400000
1143 11666 1198 1 109.50000 418.400000
1143 11666 10092 1 109.50000 418.400000
1197 11666 1198 1 109.50000 418.400000
1197 11666 10092 1 109.50000 418.400000
1198 11666 10092 1 109.50000 418.400000
1200 11667 1201 1 109.50000 418.400000
1200 11667 1202 1 109.50000 418.400000
1200 11667 7373 1 109.50000 418.400000
1201 11667 1202 1 109.50000 418.400000
1201 11667 7373 1 109.50000 418.400000
1202 11667 7373 1 109.50000 418.400000
957 11668 959 1 109.50000 418.400000
957 11668 1204 1 109.50000 418.400000
957 11668 1205 1 109.50000 418.400000
959 11668 1204 1 109.50000 418.400000
959 11668 1205 1 109.50000 418.400000
1204 11668 1205 1 109.50000 418.400000
1206 11669 1207 1 109.50000 418.400000
1206 11669 11155 1 109.50000 418.400000
1206 11669 11187 1 109.50000 418.400000
1207 11669 11155 1 109.50000 418.400000
1207 11669 11187 1 109.50000 418.400000
11155 11669 11187 1 109.50000 418.400000
316 11670 1208 1 109.50000 418.400000
316 11670 1209 1 109.50000 418.400000
316 11670 1210 1 109.50000 418.400000
1208 11670 1209 1 109.50000 418.400000
1208 11670 1210 1 109.50000 418.400000
1209 11670 1210 1 109.50000 418.400000
1211 11671 1212 1 109.50000 418.400000
1211 11671 1213 1 109.50000 418.400000
1211 11671 1214 1 109.50000 418.400000
1212 11671 1213 1 109.50000 418.400000
1212 11671 1214 1 109.50000 418.400000
1213 11671 1214 1 109.50000 418.400000
1215 11672 1216 1 109.50000 418.400000
1215 11672 1217 1 109.50000 418.400000
1215 11672 1218 1 109.50000 418.400000
1216 11672 1217 1 109.50000 418.400000
1216 11672 1218 1 109.50000 418.400000
1217 11672 1218 1 109.50000 418.400000
894 11673 896 1 109.50000 418.400000
894 11673 1219 1 109.50000 418.400000
894 11673 1221 1 109.50000 418.400000
896 11673 1219 1 109.50000 418.400000
896 11673 1221 1 109.50000 418.400000
1219 11673 1221 1 109.50000 418.400000
1222 11674 1223 1 109.50000 418.400000
1222 11674 1224 1 109.50000 418.400000
1222 11674 11323 1 109.50000 418.400000
1223 11674 1224 1 109.50000 418.400000
1223 11674 11323 1 109.50000 418.400000
1224 11674 11323 1 109.50000 418.400000
1225 11675 1226 1 109.50000 418.400000
1225 11675 1227 1 109.50000 418.400000
1225 11675 1228 1 109.50000 418.400000
1226 11675 1227 1 109.50000 418.400000
1226 11675 1228 1 109.50000 418.400000
1227 11675 1228 1 109.50000 418.400000
1229 11676 1230 1 109.50000 418.400000
1229 11676 1231 1 109.50000 418.400000
1229 11676 1232 1 109.50000 418.400000
1230 11676 1231 1 109.50000 418.400000
1230 11676 1232 1 109.50000 418.400000
1231 11676 1232 1 109.50000 418.400000
1233 11677 1234 1 109.50000 418.400000
1233 11677 1235 1 109.50000 418.400000
1233 11677 1236 1 109.50000 418.400000
1234 11677 1235 1 109.50000 418.400000
1234 11677 1236 1 109.50000 418.400000
1235 11677 1236 1 109.50000 418.400000
1237 11678 1238 1 109.50000 418.400000
1237 11678 1239 1 109.50000 418.400000
1237 11678 11324 1 109.50000 418.400000
1238 11678 1239 1 109.50000 418.400000
1238 11678 11324 1 109.50000 418.400000
1239 11678 11324 1 109.50000 418.400000
687 11679 1240 1 109.50000 418.400000
687 11679 1241 1 109.50000 418.400000
687 11679 1242 1 109.50000 418.400000
1240 11679 1241 1 109.50000 418.400000
1240 11679 1242 1 109.50000 418.400000
1241 11679 1242 1 109.50000 418.400000
390 11680 1243 1 109.50000 418.400000
390 11680 1244 1 109.50000 418.400000
390 11680 1245 1 109.50000 418.400000
1243 11680 1244 1 109.50000 418.400000
1243 11680 1245 1 109.50000 418.400000
1244 11680 1245 1 109.50000 418.400000
1246 11681 1247 1 109.50000 418.400000
1246 11681 1248 1 109.50000 418.400000
1246 11681 1249 1 109.50000 418.400000
1247 11681 1248 1 109.50000 418.400000
1247 11681 1249 1 109.50000 418.400000
1248 11681 1249 1 109.50000 418.400000
1250 11682 1251 1 109.50000 418.400000
1250 11682 1252 1 109.50000 418.400000
1250 11682 1253 1 109.50000 418.400000
1251 11682 1252 1 109.50000 418.400000
1251 11682 1253 1 109.50000 418.400000
1252 11682 1253 1 109.50000 418.400000
1254 11683 1255 1 109.50000 418.400000
1254 11683 1256 1 109.50000 418.400000
1254 11683 1257 1 109.50000 418.400000
1255 11683 1256 1 109.50000 418.400000
1255 11683 1257 1 109.50000 418.400000
1256 11683 1257 1 109.50000 418.400000
1259 11684 1260 1 109.50000 418.400000
1259 11684 1261 1 109.50000 418.400000
1259 11684 1262 1 109.50000 418.400000
1260 11684 1261 1 109.50000 418.400000
1260 11684 1262 1 109.50000 418.400000
1261 11684 1262 1 109.50000 418.400000
160 11685 1263 1 109.50000 418.400000
160 11685 1264 1 109.50000 418.400000
160 11685 1265 1 109.50000 418.400000
1263 11685 1264 1 109.50000 418.400000
1263 11685 1265 1 109.50000 418.400000
1264 11685 1265 1 109.50000 418.400000
1266 11686 1267 1 109.50000 418.400000
1266 11686 1268 1 109.50000 418.400000
1266 11686 1269 1 109.50000 418.400000
1267 11686 1268 1 109.50000 418.400000
1267 11686 1269 1 109.50000 418.400000
1268 11686 1269 1 109.50000 418.400000
1270 11687 1271 1 109.50000 418.400000
1270 11687 1272 1 109.50000 418.400000
1270 11687 1273 1 109.50000 418.400000
1271 11687 1272 1 109.50000 418.400000
1271 11687 1273 1 109.50000 418.400000
1272 11687 1273 1 109.50000 418.400000
1274 11688 1275 1 109.50000 418.400000
1274 11688 1276 1 109.50000 418.400000
1274 11688 1277 1 109.50000 418.400000
1275 11688 1276 1 109.50000 418.400000
1275 11688 1277 1 109.50000 418.400000
1276 11688 1277 1 109.50000 418.400000
1278 11689 1279 1 109.50000 418.400000
1278 11689 1280 1 109.50000 418.400000
1278 11689 1281 1 109.50000 418.400000
1279 11689 1280 1 109.50000 418.400000
1279 11689 1281 1 109.50000 418.400000
1280 11689 1281 1 109.50000 418.400000
1282 11690 1283 1 109.50000 418.400000
1282 11690 1285 1 109.50000 418.400000
1282 11690 8383 1 109.50000 418.400000
1283 11690 1285 1 109.50000 418.400000
1283 11690 8383 1 109.50000 418.400000
1285 11690 8383 1 109.50000 418.400000
1286 11691 1288 1 109.50000 418.400000
1286 11691 9978 1 109.50000 418.400000
1286 11691 11252 1 109.50000 418.400000
1288 11691 9978 1 109.50000 418.400000
1288 11691 11252 1 109.50000 418.400000
9978 11691 11252 1 109.50000 418.400000
949 11692 1289 1 109.50000 418.400000
949 11692 1290 1 109.50000 418.400000
949 11692 1291 1 109.50000 418.400000
1289 11692 1290 1 109.50000 418.400000
1289 11692 1291 1 109.50000 418.400000
1290 11692 1291 1 109.50000 418.400000
1292 11693 1293 1 109.50000 418.400000
1292 11693 1294 1 109.50000 418.400000
1292 11693 1295 1 109.50000 418.400000
1293 11693 1294 1 109.50000 418.400000
1293 11693 1295 1 109.50000 418.400000
1294 11693 1295 1 109.50000 418.400000
668 11694 1296 1 109.50000 418.400000
668 11694 1297 1 109.50000 418.400000
668 11694 1298 1 109.50000 418.400000
1296 11694 1297 1 109.50000 418.400000
1296 11694 1298 1 109.50000 418.400000
1297 11694 1298 1 109.50000 418.400000
1299 11695 1300 1 109.50000 418.400000
1299 11695 1301 1 109.50000 418.400000
1299 11695 1302 1 109.50000 418.400000
1300 11695 1301 1 109.50000 418.400000
1300 11695 1302 1 109.50000 418.400000
1301 11695 1302 1 109.50000 418.400000
1303 11696 1305 1 109.50000 418.400000
1303 11696 1306 1 109.50000 418.400000
1303 11696 8986 1 109.50000 418.400000
1305 11696 1306 1 109.50000 418.400000
1305 11696 8986 1 109.50000 418.400000
1306 11696 8986 1 109.50000 418.400000
1047 11697 1307 1 109.50000 418.400000
1047 11697 1308 1 109.50000 418.400000
1047 11697 1309 1 109.50000 418.400000
1307 11697 1308 1 109.50000 418.400000
1307 11697 1309 1 109.50000 418.400000
1308 11697 1309 1 109.50000 418.400000
1225 11698 1310 1 109.50000 418.400000
1225 11698 1311 1 109.50000 418.400000
1225 11698 1312 1 109.50000 418.400000
1310 11698 1311 1 109.50000 418.400000
1310 11698 1312 1 109.50000 418.400000
1311 11698 1312 1 109.50000 418.400000
1313 11699 1314 1 109.50000 418.400000
1313 11699 1315 1 109.50000 418.400000
1313 11699 1316 1 109.50000 418.400000
1314 11699 1315 1 109.50000 418.400000
1314 11699 1316 1 109.50000 418.400000
1315 11699 1316 1 109.50000 418.400000
1317 11700 1318 1 109.50000 418.400000
1317 11700 1319 1 109.50000 418.400000
1317 11700 1320 1 109.50000 418.400000
1318 11700 1319 1 109.50000 418.400000
1318 11700 1320 1 109.50000 418.400000
1319 11700 1320 1 109.50000 418.400000
1321 11701 1322 1 109.50000 418.400000
1321 11701 1323 1 109.50000 418.400000
1321 11701 1324 1 109.50000 418.400000
1322 11701 1323 1 109.50000 418.400000
1322 11701 1324 1 109.50000 418.400000
1323 11701 1324 1 109.50000 418.400000
1325 11702 1326 1 109.50000 418.400000
1325 11702 1327 1 109.50000 418.400000
1325 11702 1328 1 109.50000 418.400000
1326 11702 1327 1 109.50000 418.400000
1326 11702 1328 1 109.50000 418.400000
1327 11702 1328 1 109.50000 418.400000
1329 11703 1331 1 109.50000 418.400000
1329 11703 2429 1 109.50000 418.400000
1329 11703 11325 1 109.50000 418.400000
1331 11703 2429 1 109.50000 418.400000
1331 11703 11325 1 109.50000 418.400000
2429 11703 11325 1 109.50000 418.400000
1332 11704 1333 1 109.50000 418.400000
1332 11704 1334 1 109.50000 418.400000
1332 11704 1335 1 109.50000 418.400000
1333 11704 1334 1 109.50000 418.400000
1333 11704 1335 1 109.50000 418.400000
1334 11704 1335 1 109.50000 418.400000
1336 11705 1337 1 109.50000 418.400000
1336 11705 1338 1 109.50000 418.400000
1336 11705 1339 1 109.50000 418.400000
1337 11705 1338 1 109.50000 418.400000
1337 11705 1339 1 109.50000 418.400000
1338 11705 1339 1 109.50000 418.400000
311 11706 1340 1 109.50000 418.400000
311 11706 1341 1 109.50000 418.400000
311 11706 1342 1 109.50000 418.400000
1340 11706 1341 1 109.50000 418.400000
1340 11706 1342 1 109.50000 418.400000
1341 11706 1342 1 109.50000 418.400000
1343 11707 1344 1 109.50000 418.400000
1343 11707 11156 1 109.50000 418.400000
1343 11707 11326 1 109.50000 418.400000
1344 11707 11156 1 109.50000 418.400000
1344 11707 11326 1 109.50000 418.400000
11156 11707 11326 1 109.50000 418.400000
1345 11708 1346 1 109.50000 418.400000
1345 11708 1347 1 109.50000 418.400000
1345 11708 1348 1 109.50000 418.400000
1346 11708 1347 1 109.50000 418.400000
1346 11708 1348 1 109.50000 418.400000
1347 11708 1348 1 109.50000 418.400000
1351 11709 5197 1 109.50000 418.400000
1351 11709 7319 1 109.50000 418.400000
1351 11709 7320 1 109.50000 418.400000
5197 11709 7319 1 109.50000 418.400000
5197 11709 7320 1 109.50000 418.400000
7319 11709 7320 1 109.50000 418.400000
1353 11710 1355 1 109.50000 418.400000
1353 11710 1356 1 109.50000 418.400000
1353 11710 9709 1 109.50000 418.400000
1355 11710 1356 1 109.50000 418.400000
1355 11710 9709 1 109.50000 418.400000
1356 11710 9709 1 109.50000 418.400000
1358 11711 1360 1 109.50000 418.400000
1358 11711 3234 1 109.50000 418.400000
1358 11711 3235 1 109.50000 418.400000
1360 11711 3234 1 109.50000 418.400000
1360 11711 3235 1 109.50000 418.400000
3234 11711 3235 1 109.50000 418.400000
1361 11712 1362 1 109.50000 418.400000
1361 11712 1363 1 109.50000 418.400000
1361 11712 1364 1 109.50000 418.400000
1362 11712 1363 1 109.50000 418.400000
1362 11712 1364 1 109.50000 418.400000
1363 11712 1364 1 109.50000 418.400000
1365 11713 1366 1 109.50000 418.400000
1365 11713 1367 1 109.50000 418.400000
1365 11713 1368 1 109.50000 418.400000
1366 11713 1367 1 109.50000 418.400000
1366 11713 1368 1 109.50000 418.400000
1367 11713 1368 1 109.50000 418.400000
1369 11714 1370 1 109.50000 418.400000
1369 11714 1371 1 109.50000 418.400000
1369 11714 1372 1 109.50000 418.400000
1370 11714 1371 1 109.50000 418.400000
1370 11714 1372 1 109.50000 418.400000
1371 11714 1372 1 109.50000 418.400000
4 11715 1373 1 109.50000 418.400000
4 11715 1374 1 109.50000 418.400000
4 11715 1375 1 109.50000 418.400000
1373 11715 1374 1 109.50000 418.400000
1373 11715 1375 1 109.50000 418.400000
1374 11715 1375 1 109.50000 418.400000
1376 11716 1377 1 109.50000 418.400000
1376 11716 1378 1 109.50000 418.400000
1376 11716 1379 1 109.50000 418.400000
1377 11716 1378 1 109.50000 418.400000
1377 11716 1379 1 109.50000 418.400000
1378 11716 1379 1 109.50000 418.400000
1380 11717 1381 1 109.50000 418.400000
1380 11717 1382 1 109.50000 418.400000
1380 11717 11327 1 109.50000 418.400000
1381 11717 1382 1 109.50000 418.400000
1381 11717 11327 1 109.50000 418.400000
1382 11717 11327 1 109.50000 418.400000
1383 11718 1384 1 109.50000 418.400000
1383 11718 1385 1 109.50000 418.400000
1383 11718 1386 1 109.50000 418.400000
1384 11718 1385 1 109.50000 418.400000
1384 11718 1386 1 109.50000 418.400000
1385 11718 1386 1 109.50000 418.400000
1387 11719 1388 1 109.50000 418.400000
1387 11719 1389 1 109.50000 418.400000
1387 11719 11328 1 109.50000 418.400000
1388 11719 1389 1 109.50000 418.400000
1388 11719 11328 1 109.50000 418.400000
1389 11719 11328 1 109.50000 418.400000
1390 11720 1391 1 109.50000 418.400000
1390 11720 1392 1 109.50000 418.400000
1390 11720 1393 1 109.50000 418.400000
1391 11720 1392 1 109.50000 418.400000
1391 11720 1393 1 109.50000 418.400000
1392 11720 1393 1 109.50000 418.400000
1394 11721 1395 1 109.50000 418.400000
1394 11721 1396 1 109.50000 418.400000
1394 11721 1397 1 109.50000 418.400000
1395 11721 1396 1 109.50000 418.400000
1395 11721 1397 1 109.50000 418.400000
1396 11721 1397 1 109.50000 418.400000
1398 11722 1399 1 109.50000 418.400000
1398 11722 1400 1 109.50000 418.400000
1398 11722 1401 1 109.50000 418.400000
1399 11722 1400 1 109.50000 418.400000
1399 11722 1401 1 109.50000 418.400000
1400 11722 1401 1 109.50000 418.400000
1402 11723 1404 1 109.50000 418.400000
1402 11723 1405 1 109.50000 418.400000
1402 11723 3796 1 109.50000 418.400000
1404 11723 1405 1 109.50000 418.400000
1404 11723 3796 1 109.50000 418.400000
1405 11723 3796 1 109.50000 418.400000
1406 11724 1407 1 109.50000 418.400000
1406 11724 1408 1 109.50000 418.400000
1406 11724 11329 1 109.50000 418.400000
1407 11724 1408 1 109.50000 418.400000
1407 11724 11329 1 109.50000 418.400000
1408 11724 11329 1 109.50000 418.400000
1410 11725 1411 1 109.50000 418.400000
1410 11725 1412 1 109.50000 418.400000
1410 11725 5204 1 109.50000 418.400000
1411 11725 1412 1 109.50000 418.400000
1411 11725 5204 1 109.50000 418.400000
1412 11725 5204 1 109.50000 418.400000
1413 11726 1414 1 109.50000 418.400000
1413 11726 11157 1 109.50000 418.400000
1413 11726 11330 1 109.50000 418.400000
1414 11726 11157 1 109.50000 418.400000
1414 11726 11330 1 109.50000 418.400000
11157 11726 11330 1 109.50000 418.400000
1218 11727 1415 1 109.50000 418.400000
1218 11727 1416 1 109.50000 418.400000
1218 11727 1417 1 109.50000 418.400000
1415 11727 1416 1 109.50000 418.400000
1415 11727 1417 1 109.50000 418.400000
1416 11727 1417 1 109.50000 418.400000
1418 11728 1419 1 109.50000 418.400000
1418 11728 1420 1 109.50000 418.400000
1418 11728 1421 1 109.50000 418.400000
1419 11728 1420 1 109.50000 418.400000
1419 11728 1421 1 109.50000 418.400000
1420 11728 1421 1 109.50000 418.400000
1422 11729 1423 1 109.50000 418.400000
1422 11729 1424 1 109.50000 418.400000
1422 11729 1425 1 109.50000 418.400000
1423 11729 1424 1 109.50000 418.400000
1423 11729 1425 1 109.50000 418.400000
1424 11729 1425 1 109.50000 418.400000
1426 11730 1427 1 109.50000 418.400000
1426 11730 1428 1 109.50000 418.400000
1426 11730 1429 1 109.50000 418.400000
1427 11730 1428 1 109.50000 418.400000
1427 11730 1429 1 109.50000 418.400000
1428 11730 1429 1 109.50000 418.400000
984 11731 1430 1 109.50000 418.400000
984 11731 1431 1 109.50000 418.400000
984 11731 1432 1 109.50000 418.400000
1430 11731 1431 1 109.50000 418.400000
1430 11731 1432 1 109.50000 418.400000
1431 11731 1432 1 109.50000 418.400000
339 11732 1433 1 109.50000 418.400000
339 11732 1434 1 109.50000 418.400000
339 11732 1435 1 109.50000 418.400000
1433 11732 1434 1 109.50000 418.400000
1433 11732 1435 1 109.50000 418.400000
1434 11732 1435 1 109.50000 418.400000
1436 11733 1437 1 109.50000 418.400000
1436 11733 1438 1 109.50000 418.400000
1436 11733 1439 1 109.50000 418.400000
1437 11733 1438 1 109.50000 418.400000
1437 11733 1439 1 109.50000 418.400000
1438 11733 1439 1 109.50000 418.400000
1440 11734 1441 1 109.50000 418.400000
1440 11734 1442 1 109.50000 418.400000
1440 11734 8166 1 109.50000 418.400000
1441 11734 1442 1 109.50000 418.400000
1441 11734 8166 1 109.50000 418.400000
1442 11734 8166 1 109.50000 418.400000
1443 11735 1444 1 109.50000 418.400000
1443 11735 11158 1 109.50000 418.400000
1443 11735 11331 1 109.50000 418.400000
1444 11735 11158 1 109.50000 418.400000
1444 11735 11331 1 109.50000 418.400000
11158 11735 11331 1 109.50000 418.400000
1445 11736 1446 1 109.50000 418.400000
1445 11736 1447 1 109.50000 418.400000
1445 11736 1448 1 109.50000 418.400000
1446 11736 1447 1 109.50000 418.400000
1446 11736 1448 1 109.50000 418.400000
1447 11736 1448 1 109.50000 418.400000
1449 11737 1450 1 109.50000 418.400000
1449 11737 11159 1 109.50000 418.400000
1449 11737 11259 1 109.50000 418.400000
1450 11737 11159 1 109.50000 418.400000
1450 11737 11259 1 109.50000 418.400000
11159 11737 11259 1 109.50000 418.400000
129 11738 1451 1 109.50000 418.400000
129 11738 1452 1 109.50000 418.400000
129 11738 1453 1 109.50000 418.400000
1451 11738 1452 1 109.50000 418.400000
1451 11738 1453 1 109.50000 418.400000
1452 11738 1453 1 109.50000 418.400000
1454 11739 1455 1 109.50000 418.400000
1454 11739 1456 1 109.50000 418.400000
1454 11739 11332 1 109.50000 418.400000
1455 11739 1456 1 109.50000 418.400000
1455 11739 11332 1 109.50000 418.400000
1456 11739 11332 1 109.50000 418.400000
1256 11740 1457 1 109.50000 418.400000
1256 11740 1458 1 109.50000 418.400000
1256 11740 1459 1 109.50000 418.400000
1457 11740 1458 1 109.50000 418.400000
1457 11740 1459 1 109.50000 418.400000
1458 11740 1459 1 109.50000 418.400000
1461 11741 1462 1 109.50000 418.400000
1461 11741 8161 1 109.50000 418.400000
1461 11741 8162 1 109.50000 418.400000
1462 11741 8161 1 109.50000 418.400000
1462 11741 8162 1 109.50000 418.400000
8161 11741 8162 1 109.50000 418.400000
1464 11742 1465 1 109.50000 418.400000
1464 11742 1466 1 109.50000 418.400000
1464 11742 1467 1 109.50000 418.400000
1465 11742 1466 1 109.50000 418.400000
1465 11742 1467 1 109.50000 418.400000
1466 11742 1467 1 109.50000 418.400000
1470 11743 1471 1 109.50000 418.400000
1470 11743 11160 1 109.50000 418.400000
1470 11743 11182 1 109.50000 418.400000
1471 11743 11160 1 109.50000 418.400000
1471 11743 11182 1 109.50000 418.400000
11160 11743 11182 1 109.50000 418.400000
1472 11744 1473 1 109.50000 418.400000
1472 11744 1474 1 109.50000 418.400000
1472 11744 1475 1 109.50000 418.400000
1473 11744 1474 1 109.50000 418.400000
1473 11744 1475 1 109.50000 418.400000
1474 11744 1475 1 109.50000 418.400000
1476 11745 1477 1 109.50000 418.400000
1476 11745 11161 1 109.50000 418.400000
1476 11745 11172 1 109.50000 418.400000
1477 11745 11161 1 109.50000 418.400000
1477 11745 11172 1 109.50000 418.400000
11161 11745 11172 1 109.50000 418.400000
1478 11746 1479 1 109.50000 418.400000
1478 11746 1480 1 109.50000 418.400000
1478 11746 1481 1 109.50000 418.400000
1479 11746 1480 1 109.50000 418.400000
1479 11746 1481 1 109.50000 418.400000
1480 11746 1481 1 109.50000 418.400000
1482 11747 1483 1 109.50000 418.400000
1482 11747 1484 1 109.50000 418.400000
1482 11747 1485 1 109.50000 418.400000
1483 11747 1484 1 109.50000 418.400000
1483 11747 1485 1 109.50000 418.400000
1484 11747 1485 1 109.50000 418.400000
1486 11748 1487 1 109.50000 418.400000
1486 11748 1488 1 109.50000 418.400000
1486 11748 1489 1 109.50000 418.400000
1487 11748 1488 1 109.50000 418.400000
1487 11748 1489 1 109.50000 418.400000
1488 11748 1489 1 109.50000 418.400000
1490 11749 1491 1 109.50000 418.400000
1490 11749 1492 1 109.50000 418.400000
1490 11749 1493 1 109.50000 418.400000
1491 11749 1492 1 109.50000 418.400000
1491 11749 1493 1 109.50000 418.400000
1492 11749 1493 1 109.50000 418.400000
1494 11750 1495 1 109.50000 418.400000
1494 11750 1496 1 109.50000 418.400000
1494 11750 1497 1 109.50000 418.400000
1495 11750 1496 1 109.50000 418.400000
1495 11750 1497 1 109.50000 418.400000
1496 11750 1497 1 109.50000 418.400000
1498 11751 1500 1 109.50000 418.400000
1498 11751 1501 1 109.50000 418.400000
1498 11751 3617 1 109.50000 418.400000
1500 11751 1501 1 109.50000 418.400000
1500 11751 3617 1 109.50000 418.400000
1501 11751 3617 1 109.50000 418.400000
1502 11752 1503 1 109.50000 418.400000
1502 11752 1504 1 109.50000 418.400000
1502 11752 1505 1 109.50000 418.400000
1503 11752 1504 1 109.50000 418.400000
1503 11752 1505 1 109.50000 418.400000
1504 11752 1505 1 109.50000 418.400000
1506 11753 1507 1 109.50000 418.400000
1506 11753 1508 1 109.50000 418.400000
1506 11753 1509 1 109.50000 418.400000
1507 11753 1508 1 109.50000 418.400000
1507 11753 1509 1 109.50000 418.400000
1508 11753 1509 1 109.50000 418.400000
1510 11754 1511 1 109.50000 418.400000
1510 11754 1512 1 109.50000 418.400000
1510 11754 1513 1 109.50000 418.400000
1511 11754 1512 1 109.50000 418.400000
1511 11754 1513 1 109.50000 418.400000
1512 11754 1513 1 109.50000 418.400000
1514 11755 1515 1 109.50000 418.400000
1514 11755 1516 1 109.50000 418.400000
1514 11755 1517 1 109.50000 418.400000
1515 11755 1516 1 109.50000 418.400000
1515 11755 1517 1 109.50000 418.400000
1516 11755 1517 1 109.50000 418.400000
1518 11756 1519 1 109.50000 418.400000
1518 11756 1520 1 109.50000 418.400000
1518 11756 1521 1 109.50000 418.400000
1519 11756 1520 1 109.50000 418.400000
1519 11756 1521 1 109.50000 418.400000
1520 11756 1521 1 109.50000 418.400000
1522 11757 1523 1 109.50000 418.400000
1522 11757 1524 1 109.50000 418.400000
1522 11757 1525 1 109.50000 418.400000
1523 11757 1524 1 109.50000 418.400000
1523 11757 1525 1 109.50000 418.400000
1524 11757 1525 1 109.50000 418.400000
1526 11758 1527 1 109.50000 418.400000
1526 11758 1528 1 109.50000 418.400000
1526 11758 1529 1 109.50000 418.400000
1527 11758 1528 1 109.50000 418.400000
1527 11758 1529 1 109.50000 418.400000
1528 11758 1529 1 109.50000 418.400000
1530 11759 1531 1 109.50000 418.400000
1530 11759 1532 1 109.50000 418.400000
1530 11759 1533 1 109.50000 418.400000
1531 11759 1532 1 109.50000 418.400000
1531 11759 1533 1 109.50000 418.400000
1532 11759 1533 1 109.50000 418.400000
1534 11760 1535 1 109.50000 418.400000
1534 11760 1536 1 109.50000 418.400000
1534 11760 1537 1 109.50000 418.400000
1535 11760 1536 1 109.50000 418.400000
1535 11760 1537 1 109.50000 418.400000
1536 11760 1537 1 109.50000 418.400000
1308 11761 1538 1 109.50000 418.400000
1308 11761 1539 1 109.50000 418.400000
1308 11761 1540 1 109.50000 418.400000
1538 11761 1539 1 109.50000 418.400000
1538 11761 1540 1 109.50000 418.400000
1539 11761 1540 1 109.50000 418.400000
1541 11762 1542 1 109.50000 418.400000
1541 11762 11162 1 109.50000 418.400000
1541 11762 11333 1 109.50000 418.400000
1542 11762 11162 1 109.50000 418.400000
1542 11762 11333 1 109.50000 418.400000
11162 11762 11333 1 109.50000 418.400000
1543 11763 1544 1 109.50000 418.400000
1543 11763 1545 1 109.50000 418.400000
1543 11763 1546 1 109.50000 418.400000
1544 11763 1545 1 109.50000 418.400000
1544 11763 1546 1 109.50000 418.400000
1545 11763 1546 1 109.50000 418.400000
1547 11764 1548 1 109.50000 418.400000
1547 11764 1549 1 109.50000 418.400000
1547 11764 1550 1 109.50000 418.400000
1548 11764 1549 1 109.50000 418.400000
1548 11764 1550 1 109.50000 418.400000
1549 11764 1550 1 109.50000 418.400000
1551 11765 1552 1 109.50000 418.400000
1551 11765 1553 1 109.50000 418.400000
1551 11765 1554 1 109.50000 418.400000
1552 11765 1553 1 109.50000 418.400000
1552 11765 1554 1 109.50000 418.400000
1553 11765 1554 1 109.50000 418.400000
1555 11766 1556 1 109.50000 418.400000
1555 11766 1557 1 109.50000 418.400000
1555 11766 1558 1 109.50000 418.400000
1556 11766 1557 1 109.50000 418.400000
1556 11766 1558 1 109.50000 418.400000
1557 11766 1558 1 109.50000 418.400000
1559 11767 1560 1 109.50000 418.400000
1559 11767 1561 1 109.50000 418.400000
1559 11767 1562 1 109.50000 418.400000
1560 11767 1561 1 109.50000 418.400000
1560 11767 1562 1 109.50000 418.400000
1561 11767 1562 1 109.50000 418.400000
1563 11768 1564 1 109.50000 418.400000
1563 11768 1565 1 109.50000 418.400000
1563 11768 1566 1 109.50000 418.400000
1564 11768 1565 1 109.50000 418.400000
1564 11768 1566 1 109.50000 418.400000
1565 11768 1566 1 109.50000 418.400000
1567 11769 1569 1 109.50000 418.400000
1567 11769 1570 1 109.50000 418.400000
1567 11769 3972 1 109.50000 418.400000
1569 11769 1570 1 109.50000 418.400000
1569 11769 3972 1 109.50000 418.400000
1570 11769 3972 1 109.50000 418.400000
1571 11770 1572 1 109.50000 418.400000
1571 11770 1573 1 109.50000 418.400000
1571 11770 1574 1 109.50000 418.400000
1572 11770 1573 1 109.50000 418.400000
1572 11770 1574 1 109.50000 418.400000
1573 11770 1574 1 109.50000 418.400000
1116 11771 1575 1 109.50000 418.400000
1116 11771 1577 1 109.50000 418.400000
1116 11771 1578 1 109.50000 418.400000
1575 11771 1577 1 109.50000 418.400000
1575 11771 1578 1 109.50000 418.400000
1577 11771 1578 1 109.50000 418.400000
1579 11772 1580 1 109.50000 418.400000
1579 11772 1581 1 109.50000 418.400000
1579 11772 1582 1 109.50000 418.400000
1580 11772 1581 1 109.50000 418.400000
1580 11772 1582 1 109.50000 418.400000
1581 11772 1582 1 109.50000 418.400000
208 11773 1583 1 109.50000 418.400000
208 11773 1584 1 109.50000 418.400000
208 11773 1585 1 109.50000 418.400000
1583 11773 1584 1 109.50000 418.400000
1583 11773 1585 1 109.50000 418.400000
1584 11773 1585 1 109.50000 418.400000
1052 11774 1586 1 109.50000 418.400000
1052 11774 1587 1 109.50000 418.400000
1052 11774 10998 1 109.50000 418.400000
1586 11774 1587 1 109.50000 418.400000
1586 11774 10998 1 109.50000 418.400000
1587 11774 10998 1 109.50000 418.400000
1589 11775 1590 1 109.50000 418.400000
1589 11775 1591 1 109.50000 418.400000
1589 11775 1592 1 109.50000 418.400000
1590 11775 1591 1 109.50000 418.400000
1590 11775 1592 1 109.50000 418.400000
1591 11775 1592 1 109.50000 418.400000
9 11776 1593 1 109.50000 418.400000
9 11776 1594 1 109.50000 418.400000
9 11776 1595 1 109.50000 418.400000
1593 11776 1594 1 109.50000 418.400000
1593 11776 1595 1 109.50000 418.400000
1594 11776 1595 1 109.50000 418.400000
226 11777 1596 1 109.50000 418.400000
226 11777 1597 1 109.50000 418.400000
226 11777 1598 1 109.50000 418.400000
1596 11777 1597 1 109.50000 418.400000
1596 11777 1598 1 109.50000 418.400000
1597 11777 1598 1 109.50000 418.400000
946 11778 1599 1 109.50000 418.400000
946 11778 1600 1 109.50000 418.400000
946 11778 1601 1 109.50000 418.400000
1599 11778 1600 1 109.50000 418.400000
1599 11778 1601 1 109.50000 418.400000
1600 11778 1601 1 109.50000 418.400000
113 11779 1602 1 109.50000 418.400000
113 11779 1603 1 109.50000 418.400000
113 11779 1604 1 109.50000 418.400000
1602 11779 1603 1 109.50000 418.400000
1602 11779 1604 1 109.50000 418.400000
1603 11779 1604 1 109.50000 418.400000
1605 11780 1606 1 109.50000 418.400000
1605 11780 1607 1 109.50000 418.400000
1605 11780 1608 1 109.50000 418.400000
1606 11780 1607 1 109.50000 418.400000
1606 11780 1608 1 109.50000 418.400000
1607 11780 1608 1 109.50000 418.400000
1609 11781 1610 1 109.50000 418.400000
1609 11781 1611 1 109.50000 418.400000
1609 11781 7765 1 109.50000 418.400000
1610 11781 1611 1 109.50000 418.400000
1610 11781 7765 1 109.50000 418.400000
1611 11781 7765 1 109.50000 418.400000
1187 11782 1613 1 109.50000 418.400000
1187 11782 1614 1 109.50000 418.400000
1187 11782 1615 1 109.50000 418.400000
1613 11782 1614 1 109.50000 418.400000
1613 11782 1615 1 109.50000 418.400000
1614 11782 1615 1 109.50000 418.400000
345 11783 1616 1 109.50000 418.400000
345 11783 1617 1 109.50000 418.400000
345 11783 1618 1 109.50000 418.400000
1616 11783 1617 1 109.50000 418.400000
1616 11783 1618 1 109.50000 418.400000
1617 11783 1618 1 109.50000 418.400000
1620 11784 1621 1 109.50000 418.400000
1620 11784 1622 1 109.50000 418.400000
1620 11784 2338 1 109.50000 418.400000
1621 11784 1622 1 109.50000 418.400000
1621 11784 2338 1 109.50000 418.400000
1622 11784 2338 1 109.50000 418.400000
1626 11785 1627 1 109.50000 418.400000
1626 11785 1628 1 109.50000 418.400000
1626 11785 1629 1 109.50000 418.400000
1627 11785 1628 1 109.50000 418.400000
1627 11785 1629 1 109.50000 418.400000
1628 11785 1629 1 109.50000 418.400000
1630 11786 1631 1 109.50000 418.400000
1630 11786 1632 1 109.50000 418.400000
1630 11786 8057 1 109.50000 418.400000
1631 11786 1632 1 109.50000 418.400000
1631 11786 8057 1 109.50000 418.400000
1632 11786 8057 1 109.50000 418.400000
1634 11787 1635 1 109.50000 418.400000
1634 11787 1636 1 109.50000 418.400000
1634 11787 11334 1 109.50000 418.400000
1635 11787 1636 1 109.50000 418.400000
1635 11787 11334 1 109.50000 418.400000
1636 11787 11334 1 109.50000 418.400000
1637 11788 1638 1 109.50000 418.400000
1637 11788 1639 1 109.50000 418.400000
1637 11788 1640 1 109.50000 418.400000
1638 11788 1639 1 109.50000 418.400000
1638 11788 1640 1 109.50000 418.400000
1639 11788 1640 1 109.50000 418.400000
79 11789 1641 1 109.50000 418.400000
79 11789 1642 1 109.50000 418.400000
79 11789 1643 1 109.50000 418.400000
1641 11789 1642 1 109.50000 418.400000
1641 11789 1643 1 109.50000 418.400000
1642 11789 1643 1 109.50000 418.400000
328 11790 995 1 109.50000 418.400000
328 11790 3056 1 109.50000 418.400000
328 11790 3577 1 109.50000 418.400000
995 11790 3056 1 109.50000 418.400000
995 11790 3577 1 109.50000 418.400000
3056 11790 3577 1 109.50000 418.400000
1650 11791 1651 1 109.50000 418.400000
1650 11791 11163 1 109.50000 418.400000
1650 11791 11335 1 109.50000 418.400000
1651 11791 11163 1 109.50000 418.400000
1651 11791 11335 1 109.50000 418.400000
11163 11791 11335 1 109.50000 418.400000
1652 11792 1653 1 109.50000 418.400000
1652 11792 1654 1 109.50000 418.400000
1652 11792 11255 1 109.50000 418.400000
1653 11792 1654 1 109.50000 418.400000
1653 11792 11255 1 109.50000 418.400000
1654 11792 11255 1 109.50000 418.400000
1656 11793 1657 1 109.50000 418.400000
1656 11793 1658 1 109.50000 418.400000
1656 11793 1659 1 109.50000 418.400000
1657 11793 1658 1 109.50000 418.400000
1657 11793 1659 1 109.50000 418.400000
1658 11793 1659 1 109.50000 418.400000
1660 11794 1661 1 109.50000 418.400000
1660 11794 1662 1 109.50000 418.400000
1660 11794 1663 1 109.50000 418.400000
1661 11794 1662 1 109.50000 418.400000
1661 11794 1663 1 109.50000 418.400000
1662 11794 1663 1 109.50000 418.400000
1664 11795 1665 1 109.50000 418.400000
1664 11795 1666 1 109.50000 418.400000
1664 11795 1667 1 109.50000 418.400000
1665 11795 1666 1 109.50000 418.400000
1665 11795 1667 1 109.50000 418.400000
1666 11795 1667 1 109.50000 418.400000
1668 11796 1669 1 109.50000 418.400000
1668 11796 1670 1 109.50000 418.400000
1668 11796 1671 1 109.50000 418.400000
1669 11796 1670 1 109.50000 418.400000
1669 11796 1671 1 109.50000 418.400000
1670 11796 1671 1 109.50000 418.400000
646 11797 1619 1 109.50000 418.400000
646 11797 1672 1 109.50000 418.400000
646 11797 1673 1 109.50000 418.400000
1619 11797 1672 1 109.50000 418.400000
1619 11797 1673 1 109.50000 418.400000
1672 11797 1673 1 109.50000 418.400000
1674 11798 1675 1 109.50000 418.400000
1674 11798 1676 1 109.50000 418.400000
1674 11798 1677 1 109.50000 418.400000
1675 11798 1676 1 109.50000 418.400000
1675 11798 1677 1 109.50000 418.400000
1676 11798 1677 1 109.50000 418.400000
153 11799 1678 1 109.50000 418.400000
153 11799 1679 1 109.50000 418.400000
153 11799 1680 1 109.50000 418.400000
1678 11799 1679 1 109.50000 418.400000
1678 11799 1680 1 109.50000 418.400000
1679 11799 1680 1 109.50000 418.400000
1344 11800 1681 1 109.50000 418.400000
1344 11800 1682 1 109.50000 418.400000
1344 11800 1683 1 109.50000 418.400000
1681 11800 1682 1 109.50000 418.400000
1681 11800 1683 1 109.50000 418.400000
1682 11800 1683 1 109.50000 418.400000
1689 11801 1690 1 109.50000 418.400000
1689 11801 1691 1 109.50000 418.400000
1689 11801 11336 1 109.50000 418.400000
1690 11801 1691 1 109.50000 418.400000
1690 11801 11336 1 109.50000 418.400000
1691 11801 11336 1 109.50000 418.400000
1692 11802 1693 1 109.50000 418.400000
1692 11802 1694 1 109.50000 418.400000
1692 11802 1695 1 109.50000 418.400000
1693 11802 1694 1 109.50000 418.400000
1693 11802 1695 1 109.50000 418.400000
1694 11802 1695 1 109.50000 418.400000
1697 11803 1698 1 109.50000 418.400000
1697 11803 1699 1 109.50000 418.400000
1697 11803 4081 1 109.50000 418.400000
1698 11803 1699 1 109.50000 418.400000
1698 11803 4081 1 109.50000 418.400000
1699 11803 4081 1 109.50000 418.400000
1700 11804 1701 1 109.50000 418.400000
1700 11804 1702 1 109.50000 418.400000
1700 11804 1703 1 109.50000 418.400000
1701 11804 1702 1 109.50000 418.400000
1701 11804 1703 1 109.50000 418.400000
1702 11804 1703 1 109.50000 418.400000
1704 11805 1705 1 109.50000 418.400000
1704 11805 1706 1 109.50000 418.400000
1704 11805 1707 1 109.50000 418.400000
1705 11805 1706 1 109.50000 418.400000
1705 11805 1707 1 109.50000 418.400000
1706 11805 1707 1 109.50000 418.400000
811 11806 1708 1 109.50000 418.400000
811 11806 1709 1 109.50000 418.400000
811 11806 1710 1 109.50000 418.400000
1708 11806 1709 1 109.50000 418.400000
1708 11806 1710 1 109.50000 418.400000
1709 11806 1710 1 109.50000 418.400000
250 11807 1711 1 109.50000 418.400000
250 11807 1713 1 109.50000 418.400000
250 11807 1714 1 109.50000 418.400000
1711 11807 1713 1 109.50000 418.400000
1711 11807 1714 1 109.50000 418.400000
1713 11807 1714 1 109.50000 418.400000
560 11808 1715 1 109.50000 418.400000
560 11808 1716 1 109.50000 418.400000
560 11808 1717 1 109.50000 418.400000
1715 11808 1716 1 109.50000 418.400000
1715 11808 1717 1 109.50000 418.400000
1716 11808 1717 1 109.50000 418.400000
374 11809 1718 1 109.50000 418.400000
374 11809 11165 1 109.50000 418.400000
374 11809 11337 1 109.50000 418.400000
1718 11809 11165 1 109.50000 418.400000
1718 11809 11337 1 109.50000 418.400000
11165 11809 11337 1 109.50000 418.400000
1719 11810 1722 1 109.50000 418.400000
1719 11810 5451 1 109.50000 418.400000
1719 11810 5452 1 109.50000 418.400000
1722 11810 5451 1 109.50000 418.400000
1722 11810 5452 1 109.50000 418.400000
5451 11810 5452 1 109.50000 418.400000
1723 11811 1724 1 109.50000 418.400000
1723 11811 1725 1 109.50000 418.400000
1723 11811 1726 1 109.50000 418.400000
1724 11811 1725 1 109.50000 418.400000
1724 11811 1726 1 109.50000 418.400000
1725 11811 1726 1 109.50000 418.400000
1036 11812 1073 1 109.50000 418.400000
1036 11812 1727 1 109.50000 418.400000
1036 11812 11338 1 109.50000 418.400000
1073 11812 1727 1 109.50000 418.400000
1073 11812 11338 1 109.50000 418.400000
1727 11812 11338 1 109.50000 418.400000
973 11813 1728 1 109.50000 418.400000
973 11813 1729 1 109.50000 418.400000
973 11813 1730 1 109.50000 418.400000
1728 11813 1729 1 109.50000 418.400000
1728 11813 1730 1 109.50000 418.400000
1729 11813 1730 1 109.50000 418.400000
1731 11814 1732 1 109.50000 418.400000
1731 11814 1733 1 109.50000 418.400000
1731 11814 1734 1 109.50000 418.400000
1732 11814 1733 1 109.50000 418.400000
1732 11814 1734 1 109.50000 418.400000
1733 11814 1734 1 109.50000 418.400000
1735 11815 1736 1 109.50000 418.400000
1735 11815 1737 1 109.50000 418.400000
1735 11815 11339 1 109.50000 418.400000
1736 11815 1737 1 109.50000 418.400000
1736 11815 11339 1 109.50000 418.400000
1737 11815 11339 1 109.50000 418.400000
1738 11816 1739 1 109.50000 418.400000
1738 11816 8581 1 109.50000 418.400000
1738 11816 10835 1 109.50000 418.400000
1739 11816 8581 1 109.50000 418.400000
1739 11816 10835 1 109.50000 418.400000
8581 11816 10835 1 109.50000 418.400000
1742 11817 8259 1 109.50000 418.400000
1742 11817 11166 1 109.50000 418.400000
1742 11817 11190 1 109.50000 418.400000
8259 11817 11166 1 109.50000 418.400000
8259 11817 11190 1 109.50000 418.400000
11166 11817 11190 1 109.50000 418.400000
1743 11818 1744 1 109.50000 418.400000
1743 11818 1745 1 109.50000 418.400000
1743 11818 1746 1 109.50000 418.400000
1744 11818 1745 1 109.50000 418.400000
1744 11818 1746 1 109.50000 418.400000
1745 11818 1746 1 109.50000 418.400000
691 11819 692 1 109.50000 418.400000
691 11819 1747 1 109.50000 418.400000
691 11819 1748 1 109.50000 418.400000
692 11819 1747 1 109.50000 418.400000
692 11819 1748 1 109.50000 418.400000
1747 11819 1748 1 109.50000 418.400000
1751 11820 1752 1 109.50000 418.400000
1751 11820 1753 1 109.50000 418.400000
1751 11820 11340 1 109.50000 418.400000
1752 11820 1753 1 109.50000 418.400000
1752 11820 11340 1 109.50000 418.400000
1753 11820 11340 1 109.50000 418.400000
1754 11821 1755 1 109.50000 418.400000
1754 11821 1756 1 109.50000 418.400000
1754 11821 1757 1 109.50000 418.400000
1755 11821 1756 1 109.50000 418.400000
1755 11821 1757 1 109.50000 418.400000
1756 11821 1757 1 109.50000 418.400000
1299 11822 1761 1 109.50000 418.400000
1299 11822 1762 1 109.50000 418.400000
1299 11822 1763 1 109.50000 418.400000
1761 11822 1762 1 109.50000 418.400000
1761 11822 1763 1 109.50000 418.400000
1762 11822 1763 1 109.50000 418.400000
1764 11823 1765 1 109.50000 418.400000
1764 11823 1766 1 109.50000 418.400000
1764 11823 1767 1 109.50000 418.400000
1765 11823 1766 1 109.50000 418.400000
1765 11823 1767 1 109.50000 418.400000
1766 11823 1767 1 109.50000 418.400000
1768 11824 1769 1 109.50000 418.400000
1768 11824 1770 1 109.50000 418.400000
1768 11824 1771 1 109.50000 418.400000
1769 11824 1770 1 109.50000 418.400000
1769 11824 1771 1 109.50000 418.400000
1770 11824 1771 1 109.50000 418.400000
1772 11825 1773 1 109.50000 418.400000
1772 11825 1774 1 109.50000 418.400000
1772 11825 1775 1 109.50000 418.400000
1773 11825 1774 1 109.50000 418.400000
1773 11825 1775 1 109.50000 418.400000
1774 11825 1775 1 109.50000 418.400000
1601 11826 1778 1 109.50000 418.400000
1601 11826 1779 1 109.50000 418.400000
1601 11826 1780 1 109.50000 418.400000
1778 11826 1779 1 109.50000 418.400000
1778 11826 1780 1 109.50000 418.400000
1779 11826 1780 1 109.50000 418.400000
1781 11827 1782 1 109.50000 418.400000
1781 11827 1783 1 109.50000 418.400000
1781 11827 1784 1 109.50000 418.400000
1782 11827 1783 1 109.50000 418.400000
1782 11827 1784 1 109.50000 418.400000
1783 11827 1784 1 109.50000 418.400000
640 11828 1785 1 109.50000 418.400000
640 11828 1786 1 109.50000 418.400000
640 11828 1787 1 109.50000 418.400000
1785 11828 1786 1 109.50000 418.400000
1785 11828 1787 1 109.50000 418.400000
1786 11828 1787 1 109.50000 418.400000
1788 11829 1789 1 109.50000 418.400000
1788 11829 1790 1 109.50000 418.400000
1788 11829 1791 1 109.50000 418.400000
1789 11829 1790 1 109.50000 418.400000
1789 11829 1791 1 109.50000 418.400000
1790 11829 1791 1 109.50000 418.400000
1056 11830 1792 1 109.50000 418.400000
1056 11830 1793 1 109.50000 418.400000
1056 11830 1794 1 109.50000 418.400000
1792 11830 1793 1 109.50000 418.400000
1792 11830 1794 1 109.50000 418.400000
1793 11830 1794 1 109.50000 418.400000
1795 11831 1796 1 109.50000 418.400000
1795 11831 1797 1 109.50000 418.400000
1795 11831 1798 1 109.50000 418.400000
1796 11831 1797 1 109.50000 418.400000
1796 11831 1798 1 109.50000 418.400000
1797 11831 1798 1 109.50000 418.400000
1799 11832 1800 1 109.50000 418.400000
1799 11832 1801 1 109.50000 418.400000
1799 11832 1802 1 109.50000 418.400000
1800 11832 1801 1 109.50000 418.400000
1800 11832 1802 1 109.50000 418.400000
1801 11832 1802 1 109.50000 418.400000
1803 11833 1804 1 109.50000 418.400000
1803 11833 1805 1 109.50000 418.400000
1803 11833 1806 1 109.50000 418.400000
1804 11833 1805 1 109.50000 418.400000
1804 11833 1806 1 109.50000 418.400000
1805 11833 1806 1 109.50000 418.400000
1141 11834 1809 1 109.50000 418.400000
1141 11834 1810 1 109.50000 418.400000
1141 11834 1811 1 109.50000 418.400000
1809 11834 1810 1 109.50000 418.400000
1809 11834 1811 1 109.50000 418.400000
1810 11834 1811 1 109.50000 418.400000
1567 11835 1812 1 109.50000 418.400000
1567 11835 1813 1 109.50000 418.400000
1567 11835 1814 1 109.50000 418.400000
1812 11835 1813 1 109.50000 418.400000
1812 11835 1814 1 109.50000 418.400000
1813 11835 1814 1 109.50000 418.400000
1815 11836 1816 1 109.50000 418.400000
1815 11836 1817 1 109.50000 418.400000
1815 11836 1818 1 109.50000 418.400000
1816 11836 1817 1 109.50000 418.400000
1816 11836 1818 1 109.50000 418.400000
1817 11836 1818 1 109.50000 418.400000
59 11837 1819 1 109.50000 418.400000
59 11837 1820 1 109.50000 418.400000
59 11837 1821 1 109.50000 418.400000
1819 11837 1820 1 109.50000 418.400000
1819 11837 1821 1 109.50000 418.400000
1820 11837 1821 1 109.50000 418.400000
118 11838 1822 1 109.50000 418.400000
118 11838 1823 1 109.50000 418.400000
118 11838 1824 1 109.50000 418.400000
1822 11838 1823 1 109.50000 418.400000
1822 11838 1824 1 109.50000 418.400000
1823 11838 1824 1 109.50000 418.400000
1825 11839 1826 1 109.50000 418.400000
1825 11839 1827 1 109.50000 418.400000
1825 11839 1828 1 109.50000 418.400000
1826 11839 1827 1 109.50000 418.400000
1826 11839 1828 1 109.50000 418.400000
1827 11839 1828 1 109.50000 418.400000
1832 11840 1833 1 109.50000 418.400000
1832 11840 1834 1 109.50000 418.400000
1832 11840 1835 1 109.50000 418.400000
1833 11840 1834 1 109.50000 418.400000
1833 11840 1835 1 109.50000 418.400000
1834 11840 1835 1 109.50000 418.400000
116 11841 1836 1 109.50000 418.400000
116 11841 1837 1 109.50000 418.400000
116 11841 1838 1 109.50000 418.400000
1836 11841 1837 1 109.50000 418.400000
1836 11841 1838 1 109.50000 418.400000
1837 11841 1838 1 109.50000 418.400000
1839 11842 1840 1 109.50000 418.400000
1839 11842 1841 1 109.50000 418.400000
1839 11842 1842 1 109.50000 418.400000
1840 11842 1841 1 109.50000 418.400000
1840 11842 1842 1 109.50000 418.400000
1841 11842 1842 1 109.50000 418.400000
1843 11843 1844 1 109.50000 418.400000
1843 11843 1845 1 109.50000 418.400000
1843 11843 1846 1 109.50000 418.400000
1844 11843 1845 1 109.50000 418.400000
1844 11843 1846 1 109.50000 418.400000
1845 11843 1846 1 109.50000 418.400000
1847 11844 1848 1 109.50000 418.400000
1847 11844 1849 1 109.50000 418.400000
1847 11844 1850 1 109.50000 418.400000
1848 11844 1849 1 109.50000 418.400000
1848 11844 1850 1 109.50000 418.400000
1849 11844 1850 1 109.50000 418.400000
1851 11845 1852 1 109.50000 418.400000
1851 11845 1853 1 109.50000 418.400000
1851 11845 1854 1 109.50000 418.400000
1852 11845 1853 1 109.50000 418.400000
1852 11845 1854 1 109.50000 418.400000
1853 11845 1854 1 109.50000 418.400000
126 11846 1855 1 109.50000 418.400000
126 11846 1856 1 109.50000 418.400000
126 11846 1857 1 109.50000 418.400000
1855 11846 1856 1 109.50000 418.400000
1855 11846 1857 1 109.50000 418.400000
1856 11846 1857 1 109.50000 418.400000
1859 11847 1860 1 109.50000 418.400000
1859 11847 1861 1 109.50000 418.400000
1859 11847 1862 1 109.50000 418.400000
1860 11847 1861 1 109.50000 418.400000
1860 11847 1862 1 109.50000 418.400000
1861 11847 1862 1 109.50000 418.400000
1868 11848 1869 1 109.50000 418.400000
1868 11848 1870 1 109.50000 418.400000
1868 11848 1871 1 109.50000 418.400000
1869 11848 1870 1 109.50000 418.400000
1869 11848 1871 1 109.50000 418.400000
1870 11848 1871 1 109.50000 418.400000
1872 11849 1873 1 109.50000 418.400000
1872 11849 1874 1 109.50000 418.400000
1872 11849 1875 1 109.50000 418.400000
1873 11849 1874 1 109.50000 418.400000
1873 11849 1875 1 109.50000 418.400000
1874 11849 1875 1 109.50000 418.400000
1876 11850 1877 1 109.50000 418.400000
1876 11850 1878 1 109.50000 418.400000
1876 11850 11243 1 109.50000 418.400000
1877 11850 1878 1 109.50000 418.400000
1877 11850 11243 1 109.50000 418.400000
1878 11850 11243 1 109.50000 418.400000
1879 11851 1880 1 109.50000 418.400000
1879 11851 1881 1 109.50000 418.400000
1879 11851 1882 1 109.50000 418.400000
1880 11851 1881 1 109.50000 418.400000
1880 11851 1882 1 109.50000 418.400000
1881 11851 1882 1 109.50000 418.400000
128 11852 1883 1 109.50000 418.400000
128 11852 1884 1 109.50000 418.400000
128 11852 1885 1 109.50000 418.400000
1883 11852 1884 1 109.50000 418.400000
1883 11852 1885 1 109.50000 418.400000
1884 11852 1885 1 109.50000 418.400000
1247 11853 1886 1 109.50000 418.400000
1247 11853 1887 1 109.50000 418.400000
1247 11853 1888 1 109.50000 418.400000
1886 11853 1887 1 109.50000 418.400000
1886 11853 1888 1 109.50000 418.400000
1887 11853 1888 1 109.50000 418.400000
1892 11854 1893 1 109.50000 418.400000
1892 11854 1895 1 109.50000 418.400000
1892 11854 6178 1 109.50000 418.400000
1893 11854 1895 1 109.50000 418.400000
1893 11854 6178 1 109.50000 418.400000
1895 11854 6178 1 109.50000 418.400000
1898 11855 1899 1 109.50000 418.400000
1898 11855 1900 1 109.50000 418.400000
1898 11855 1901 1 109.50000 418.400000
1899 11855 1900 1 109.50000 418.400000
1899 11855 1901 1 109.50000 418.400000
1900 11855 1901 1 109.50000 418.400000
155 11856 1903 1 109.50000 418.400000
155 11856 1905 1 109.50000 418.400000
155 11856 5359 1 109.50000 418.400000
1903 11856 1905 1 109.50000 418.400000
1903 11856 5359 1 109.50000 418.400000
1905 11856 5359 1 109.50000 418.400000
1906 11857 1907 1 109.50000 418.400000
1906 11857 1908 1 109.50000 418.400000
1906 11857 1909 1 109.50000 418.400000
1907 11857 1908 1 109.50000 418.400000
1907 11857 1909 1 109.50000 418.400000
1908 11857 1909 1 109.50000 418.400000
1910 11858 1911 1 109.50000 418.400000
1910 11858 1913 1 109.50000 418.400000
1910 11858 8612 1 109.50000 418.400000
1911 11858 1913 1 109.50000 418.400000
1911 11858 8612 1 109.50000 418.400000
1913 11858 8612 1 109.50000 418.400000
1914 11859 1915 1 109.50000 418.400000
1914 11859 1916 1 109.50000 418.400000
1914 11859 1917 1 109.50000 418.400000
1915 11859 1916 1 109.50000 418.400000
1915 11859 1917 1 109.50000 418.400000
1916 11859 1917 1 109.50000 418.400000
396 11860 1416 1 109.50000 418.400000
396 11860 1918 1 109.50000 418.400000
396 11860 1919 1 109.50000 418.400000
1416 11860 1918 1 109.50000 418.400000
1416 11860 1919 1 109.50000 418.400000
1918 11860 1919 1 109.50000 418.400000
1920 11861 1921 1 109.50000 418.400000
1920 11861 1922 1 109.50000 418.400000
1920 11861 1923 1 109.50000 418.400000
1921 11861 1922 1 109.50000 418.400000
1921 11861 1923 1 109.50000 418.400000
1922 11861 1923 1 109.50000 418.400000
1925 11862 1926 1 109.50000 418.400000
1925 11862 7663 1 109.50000 418.400000
1925 11862 9010 1 109.50000 418.400000
1926 11862 7663 1 109.50000 418.400000
1926 11862 9010 1 109.50000 418.400000
7663 11862 9010 1 109.50000 418.400000
1929 11863 1931 1 109.50000 418.400000
1929 11863 5694 1 109.50000 418.400000
1929 11863 6737 1 109.50000 418.400000
1931 11863 5694 1 109.50000 418.400000
1931 11863 6737 1 109.50000 418.400000
5694 11863 6737 1 109.50000 418.400000
1932 11864 1933 1 109.50000 418.400000
1932 11864 1934 1 109.50000 418.400000
1932 11864 1935 1 109.50000 418.400000
1933 11864 1934 1 109.50000 418.400000
1933 11864 1935 1 109.50000 418.400000
1934 11864 1935 1 109.50000 418.400000
1364 11865 1936 1 109.50000 418.400000
1364 11865 1937 1 109.50000 418.400000
1364 11865 1938 1 109.50000 418.400000
1936 11865 1937 1 109.50000 418.400000
1936 11865 1938 1 109.50000 418.400000
1937 11865 1938 1 109.50000 418.400000
924 11866 1940 1 109.50000 418.400000
924 11866 1941 1 109.50000 418.400000
924 11866 1942 1 109.50000 418.400000
1940 11866 1941 1 109.50000 418.400000
1940 11866 1942 1 109.50000 418.400000
1941 11866 1942 1 109.50000 418.400000
1943 11867 1944 1 109.50000 418.400000
1943 11867 1945 1 109.50000 418.400000
1943 11867 5107 1 109.50000 418.400000
1944 11867 1945 1 109.50000 418.400000
1944 11867 5107 1 109.50000 418.400000
1945 11867 5107 1 109.50000 418.400000
375 11868 376 1 109.50000 418.400000
375 11868 378 1 109.50000 418.400000
375 11868 1947 1 109.50000 418.400000
376 11868 378 1 109.50000 418.400000
376 11868 1947 1 109.50000 418.400000
378 11868 1947 1 109.50000 418.400000
143 11869 1949 1 109.50000 418.400000
143 11869 1950 1 109.50000 418.400000
143 11869 1951 1 109.50000 418.400000
1949 11869 1950 1 109.50000 418.400000
1949 11869 1951 1 109.50000 418.400000
1950 11869 1951 1 109.50000 418.400000
1952 11870 1953 1 109.50000 418.400000
1952 11870 1954 1 109.50000 418.400000
1952 11870 1955 1 109.50000 418.400000
1953 11870 1954 1 109.50000 418.400000
1953 11870 1955 1 109.50000 418.400000
1954 11870 1955 1 109.50000 418.400000
1956 11871 1957 1 109.50000 418.400000
1956 11871 1958 1 109.50000 418.400000
1956 11871 1959 1 109.50000 418.400000
1957 11871 1958 1 109.50000 418.400000
1957 11871 1959 1 109.50000 418.400000
1958 11871 1959 1 109.50000 418.400000
1960 11872 1961 1 109.50000 418.400000
1960 11872 1962 1 109.50000 418.400000
1960 11872 1963 1 109.50000 418.400000
1961 11872 1962 1 109.50000 418.400000
1961 11872 1963 1 109.50000 418.400000
1962 11872 1963 1 109.50000 418.400000
1964 11873 1965 1 109.50000 418.400000
1964 11873 1966 1 109.50000 418.400000
1964 11873 1967 1 109.50000 418.400000
1965 11873 1966 1 109.50000 418.400000
1965 11873 1967 1 109.50000 418.400000
1966 11873 1967 1 109.50000 418.400000
677 11874 1968 1 109.50000 418.400000
677 11874 1969 1 109.50000 418.400000
677 11874 1970 1 109.50000 418.400000
1968 11874 1969 1 109.50000 418.400000
1968 11874 1970 1 109.50000 418.400000
1969 11874 1970 1 109.50000 418.400000
1971 11875 1972 1 109.50000 418.400000
1971 11875 1973 1 109.50000 418.400000
1971 11875 9727 1 109.50000 418.400000
1972 11875 1973 1 109.50000 418.400000
1972 11875 9727 1 109.50000 418.400000
1973 11875 9727 1 109.50000 418.400000
1976 11876 1977 1 109.50000 418.400000
1976 11876 1978 1 109.50000 418.400000
1976 11876 7177 1 109.50000 418.400000
1977 11876 1978 1 109.50000 418.400000
1977 11876 7177 1 109.50000 418.400000
1978 11876 7177 1 109.50000 418.400000
1979 11877 1980 1 109.50000 418.400000
1979 11877 1981 1 109.50000 418.400000
1979 11877 1982 1 109.50000 418.400000
1980 11877 1981 1 109.50000 418.400000
1980 11877 1982 1 109.50000 418.400000
1981 11877 1982 1 109.50000 418.400000
1983 11878 1984 1 109.50000 418.400000
1983 11878 1985 1 109.50000 418.400000
1983 11878 1986 1 109.50000 418.400000
1984 11878 1985 1 109.50000 418.400000
1984 11878 1986 1 109.50000 418.400000
1985 11878 1986 1 109.50000 418.400000
1987 11879 1988 1 109.50000 418.400000
1987 11879 1990 1 109.50000 418.400000
1987 11879 10974 1 109.50000 418.400000
1988 11879 1990 1 109.50000 418.400000
1988 11879 10974 1 109.50000 418.400000
1990 11879 10974 1 109.50000 418.400000
1991 11880 1992 1 109.50000 418.400000
1991 11880 1993 1 109.50000 418.400000
1991 11880 1994 1 109.50000 418.400000
1992 11880 1993 1 109.50000 418.400000
1992 11880 1994 1 109.50000 418.400000
1993 11880 1994 1 109.50000 418.400000
1995 11881 1996 1 109.50000 418.400000
1995 11881 1997 1 109.50000 418.400000
1995 11881 1998 1 109.50000 418.400000
1996 11881 1997 1 109.50000 418.400000
1996 11881 1998 1 109.50000 418.400000
1997 11881 1998 1 109.50000 418.400000
1999 11882 2000 1 109.50000 418.400000
1999 11882 2001 1 109.50000 418.400000
1999 11882 2002 1 109.50000 418.400000
2000 11882 2001 1 109.50000 418.400000
2000 11882 2002 1 109.50000 418.400000
2001 11882 2002 1 109.50000 418.400000
501 11883 2003 1 109.50000 418.400000
501 11883 2004 1 109.50000 418.400000
501 11883 2005 1 109.50000 418.400000
2003 11883 2004 1 109.50000 418.400000
2003 11883 2005 1 109.50000 418.400000
2004 11883 2005 1 109.50000 418.400000
1873 11884 2006 1 109.50000 418.400000
1873 11884 2007 1 109.50000 418.400000
1873 11884 2008 1 109.50000 418.400000
2006 11884 2007 1 109.50000 418.400000
2006 11884 2008 1 109.50000 418.400000
2007 11884 2008 1 109.50000 418.400000
2010 11885 2011 1 109.50000 418.400000
2010 11885 2012 1 109.50000 418.400000
2010 11885 2013 1 109.50000 418.400000
2011 11885 2012 1 109.50000 418.400000
2011 11885 2013 1 109.50000 418.400000
2012 11885 2013 1 109.50000 418.400000
2014 11886 2015 1 109.50000 418.400000
2014 11886 2016 1 109.50000 418.400000
2014 11886 2017 1 109.50000 418.400000
2015 11886 2016 1 109.50000 418.400000
2015 11886 2017 1 109.50000 418.400000
2016 11886 2017 1 109.50000 418.400000
1343 11887 2020 1 109.50000 418.400000
1343 11887 2021 1 109.50000 418.400000
1343 11887 2022 1 109.50000 418.400000
2020 11887 2021 1 109.50000 418.400000
2020 11887 2022 1 109.50000 418.400000
2021 11887 2022 1 109.50000 418.400000
2023 11888 2024 1 109.50000 418.400000
2023 11888 2025 1 109.50000 418.400000
2023 11888 2026 1 109.50000 418.400000
2024 11888 2025 1 109.50000 418.400000
2024 11888 2026 1 109.50000 418.400000
2025 11888 2026 1 109.50000 418.400000
255 11889 2027 1 109.50000 418.400000
255 11889 2028 1 109.50000 418.400000
255 11889 11251 1 109.50000 418.400000
2027 11889 2028 1 109.50000 418.400000
2027 11889 11251 1 109.50000 418.400000
2028 11889 11251 1 109.50000 418.400000
2029 11890 2030 1 109.50000 418.400000
2029 11890 2031 1 109.50000 418.400000
2029 11890 2032 1 109.50000 418.400000
2030 11890 2031 1 109.50000 418.400000
2030 11890 2032 1 109.50000 418.400000
2031 11890 2032 1 109.50000 418.400000
2033 11891 2034 1 109.50000 418.400000
2033 11891 2035 1 109.50000 418.400000
2033 11891 2036 1 109.50000 418.400000
2034 11891 2035 1 109.50000 418.400000
2034 11891 2036 1 109.50000 418.400000
2035 11891 2036 1 109.50000 418.400000
2037 11892 2038 1 109.50000 418.400000
2037 11892 2039 1 109.50000 418.400000
2037 11892 2040 1 109.50000 418.400000
2038 11892 2039 1 109.50000 418.400000
2038 11892 2040 1 109.50000 418.400000
2039 11892 2040 1 109.50000 418.400000
2049 11893 2050 1 109.50000 418.400000
2049 11893 2051 1 109.50000 418.400000
2049 11893 2052 1 109.50000 418.400000
2050 11893 2051 1 109.50000 418.400000
2050 11893 2052 1 109.50000 418.400000
2051 11893 2052 1 109.50000 418.400000
290 11894 293 1 109.50000 418.400000
290 11894 2053 1 109.50000 418.400000
290 11894 2054 1 109.50000 418.400000
293 11894 2053 1 109.50000 418.400000
293 11894 2054 1 109.50000 418.400000
2053 11894 2054 1 109.50000 418.400000
2055 11895 2056 1 109.50000 418.400000
2055 11895 2057 1 109.50000 418.400000
2055 11895 2058 1 109.50000 418.400000
2056 11895 2057 1 109.50000 418.400000
2056 11895 2058 1 109.50000 418.400000
2057 11895 2058 1 109.50000 418.400000
393 11896 2059 1 109.50000 418.400000
393 11896 2060 1 109.50000 418.400000
393 11896 2061 1 109.50000 418.400000
2059 11896 2060 1 109.50000 418.400000
2059 11896 2061 1 109.50000 418.400000
2060 11896 2061 1 109.50000 418.400000
2062 11897 2063 1 109.50000 418.400000
2062 11897 2064 1 109.50000 418.400000
2062 11897 2065 1 109.50000 418.400000
2063 11897 2064 1 109.50000 418.400000
2063 11897 2065 1 109.50000 418.400000
2064 11897 2065 1 109.50000 418.400000
1813 11898 2067 1 109.50000 418.400000
1813 11898 2068 1 109.50000 418.400000
1813 11898 2069 1 109.50000 418.400000
2067 11898 2068 1 109.50000 418.400000
2067 11898 2069 1 109.50000 418.400000
2068 11898 2069 1 109.50000 418.400000
971 11899 2053 1 109.50000 418.400000
971 11899 2070 1 109.50000 418.400000
971 11899 2071 1 109.50000 418.400000
2053 11899 2070 1 109.50000 418.400000
2053 11899 2071 1 109.50000 418.400000
2070 11899 2071 1 109.50000 418.400000
806 11900 809 1 109.50000 418.400000
806 11900 2072 1 109.50000 418.400000
806 11900 2073 1 109.50000 418.400000
809 11900 2072 1 109.50000 418.400000
809 11900 2073 1 109.50000 418.400000
2072 11900 2073 1 109.50000 418.400000
2075 11901 2076 1 109.50000 418.400000
2075 11901 2077 1 109.50000 418.400000
2075 11901 2078 1 109.50000 418.400000
2076 11901 2077 1 109.50000 418.400000
2076 11901 2078 1 109.50000 418.400000
2077 11901 2078 1 109.50000 418.400000
456 11902 2079 1 109.50000 418.400000
456 11902 2080 1 109.50000 418.400000
456 11902 2081 1 109.50000 418.400000
2079 11902 2080 1 109.50000 418.400000
2079 11902 2081 1 109.50000 418.400000
2080 11902 2081 1 109.50000 418.400000
254 11903 1979 1 109.50000 418.400000
254 11903 2082 1 109.50000 418.400000
254 11903 2083 1 109.50000 418.400000
1979 11903 2082 1 109.50000 418.400000
1979 11903 2083 1 109.50000 418.400000
2082 11903 2083 1 109.50000 418.400000
2084 11904 2085 1 109.50000 418.400000
2084 11904 2086 1 109.50000 418.400000
2084 11904 2087 1 109.50000 418.400000
2085 11904 2086 1 109.50000 418.400000
2085 11904 2087 1 109.50000 418.400000
2086 11904 2087 1 109.50000 418.400000
2088 11905 2089 1 109.50000 418.400000
2088 11905 2090 1 109.50000 418.400000
2088 11905 2091 1 109.50000 418.400000
2089 11905 2090 1 109.50000 418.400000
2089 11905 2091 1 109.50000 418.400000
2090 11905 2091 1 109.50000 418.400000
2092 11906 2093 1 109.50000 418.400000
2092 11906 2094 1 109.50000 418.400000
2092 11906 2095 1 109.50000 418.400000
2093 11906 2094 1 109.50000 418.400000
2093 11906 2095 1 109.50000 418.400000
2094 11906 2095 1 109.50000 418.400000
854 11907 2098 1 109.50000 418.400000
854 11907 2100 1 109.50000 418.400000
854 11907 7646 1 109.50000 418.400000
2098 11907 2100 1 109.50000 418.400000
2098 11907 7646 1 109.50000 418.400000
2100 11907 7646 1 109.50000 418.400000
1854 11908 2101 1 109.50000 418.400000
1854 11908 2102 1 109.50000 418.400000
1854 11908 2103 1 109.50000 418.400000
2101 11908 2102 1 109.50000 418.400000
2101 11908 2103 1 109.50000 418.400000
2102 11908 2103 1 109.50000 418.400000
1016 11909 2104 1 109.50000 418.400000
1016 11909 2105 1 109.50000 418.400000
1016 11909 2106 1 109.50000 418.400000
2104 11909 2105 1 109.50000 418.400000
2104 11909 2106 1 109.50000 418.400000
2105 11909 2106 1 109.50000 418.400000
2107 11910 2108 1 109.50000 418.400000
2107 11910 11171 1 109.50000 418.400000
2107 11910 11233 1 109.50000 418.400000
2108 11910 11171 1 109.50000 418.400000
2108 11910 11233 1 109.50000 418.400000
11171 11910 11233 1 109.50000 418.400000
2109 11911 2110 1 109.50000 418.400000
2109 11911 2111 1 109.50000 418.400000
2109 11911 2112 1 109.50000 418.400000
2110 11911 2111 1 109.50000 418.400000
2110 11911 2112 1 109.50000 418.400000
2111 11911 2112 1 109.50000 418.400000
2113 11912 2114 1 109.50000 418.400000
2113 11912 2115 1 109.50000 418.400000
2113 11912 2116 1 109.50000 418.400000
2114 11912 2115 1 109.50000 418.400000
2114 11912 2116 1 109.50000 418.400000
2115 11912 2116 1 109.50000 418.400000
2118 11913 2119 1 109.50000 418.400000
2118 11913 2120 1 109.50000 418.400000
2118 11913 3655 1 109.50000 418.400000
2119 11913 2120 1 109.50000 418.400000
2119 11913 3655 1 109.50000 418.400000
2120 11913 3655 1 109.50000 418.400000
2121 11914 2122 1 109.50000 418.400000
2121 11914 2123 1 109.50000 418.400000
2121 11914 2124 1 109.50000 418.400000
2122 11914 2123 1 109.50000 418.400000
2122 11914 2124 1 109.50000 418.400000
2123 11914 2124 1 109.50000 418.400000
528 11915 1346 1 109.50000 418.400000
528 11915 2125 1 109.50000 418.400000
528 11915 2126 1 109.50000 418.400000
1346 11915 2125 1 109.50000 418.400000
1346 11915 2126 1 109.50000 418.400000
2125 11915 2126 1 109.50000 418.400000
2127 11916 2128 1 109.50000 418.400000
2127 11916 2129 1 109.50000 418.400000
2127 11916 2130 1 109.50000 418.400000
2128 11916 2129 1 109.50000 418.400000
2128 11916 2130 1 109.50000 418.400000
2129 11916 2130 1 109.50000 418.400000
1195 11917 1940 1 109.50000 418.400000
1195 11917 2131 1 109.50000 418.400000
1195 11917 2132 1 109.50000 418.400000
1940 11917 2131 1 109.50000 418.400000
1940 11917 2132 1 109.50000 418.400000
2131 11917 2132 1 109.50000 418.400000
2133 11918 2134 1 109.50000 418.400000
2133 11918 2135 1 109.50000 418.400000
2133 11918 2136 1 109.50000 418.400000
2134 11918 2135 1 109.50000 418.400000
2134 11918 2136 1 109.50000 418.400000
2135 11918 2136 1 109.50000 418.400000
985 11919 2137 1 109.50000 418.400000
985 11919 2138 1 109.50000 418.400000
985 11919 2139 1 109.50000 418.400000
2137 11919 2138 1 109.50000 418.400000
2137 11919 2139 1 109.50000 418.400000
2138 11919 2139 1 109.50000 418.400000
2140 11920 2141 1 109.50000 418.400000
2140 11920 2142 1 109.50000 418.400000
2140 11920 2143 1 109.50000 418.400000
2141 11920 2142 1 109.50000 418.400000
2141 11920 2143 1 109.50000 418.400000
2142 11920 2143 1 109.50000 418.400000
2144 11921 2145 1 109.50000 418.400000
2144 11921 2146 1 109.50000 418.400000
2144 11921 2147 1 109.50000 418.400000
2145 11921 2146 1 109.50000 418.400000
2145 11921 2147 1 109.50000 418.400000
2146 11921 2147 1 109.50000 418.400000
1625 11922 2149 1 109.50000 418.400000
1625 11922 2150 1 109.50000 418.400000
1625 11922 2151 1 109.50000 418.400000
2149 11922 2150 1 109.50000 418.400000
2149 11922 2151 1 109.50000 418.400000
2150 11922 2151 1 109.50000 418.400000
2152 11923 2153 1 109.50000 418.400000
2152 11923 2154 1 109.50000 418.400000
2152 11923 2155 1 109.50000 418.400000
2153 11923 2154 1 109.50000 418.400000
2153 11923 2155 1 109.50000 418.400000
2154 11923 2155 1 109.50000 418.400000
927 11924 2156 1 109.50000 418.400000
927 11924 2157 1 109.50000 418.400000
927 11924 2158 1 109.50000 418.400000
2156 11924 2157 1 109.50000 418.400000
2156 11924 2158 1 109.50000 418.400000
2157 11924 2158 1 109.50000 418.400000
2167 11925 2168 1 109.50000 418.400000
2167 11925 2169 1 109.50000 418.400000
2167 11925 2170 1 109.50000 418.400000
2168 11925 2169 1 109.50000 418.400000
2168 11925 2170 1 109.50000 418.400000
2169 11925 2170 1 109.50000 418.400000
2171 11926 2172 1 109.50000 418.400000
2171 11926 2173 1 109.50000 418.400000
2171 11926 2174 1 109.50000 418.400000
2172 11926 2173 1 109.50000 418.400000
2172 11926 2174 1 109.50000 418.400000
2173 11926 2174 1 109.50000 418.400000
2175 11927 2177 1 109.50000 418.400000
2175 11927 2178 1 109.50000 418.400000
2175 11927 5138 1 109.50000 418.400000
2177 11927 2178 1 109.50000 418.400000
2177 11927 5138 1 109.50000 418.400000
2178 11927 5138 1 109.50000 418.400000
656 11928 2179 1 109.50000 418.400000
656 11928 2180 1 109.50000 418.400000
656 11928 9174 1 109.50000 418.400000
2179 11928 2180 1 109.50000 418.400000
2179 11928 9174 1 109.50000 418.400000
2180 11928 9174 1 109.50000 418.400000
2101 11929 2181 1 109.50000 418.400000
2101 11929 2182 1 109.50000 418.400000
2101 11929 2183 1 109.50000 418.400000
2181 11929 2182 1 109.50000 418.400000
2181 11929 2183 1 109.50000 418.400000
2182 11929 2183 1 109.50000 418.400000
2184 11930 2185 1 109.50000 418.400000
2184 11930 2186 1 109.50000 418.400000
2184 11930 2187 1 109.50000 418.400000
2185 11930 2186 1 109.50000 418.400000
2185 11930 2187 1 109.50000 418.400000
2186 11930 2187 1 109.50000 418.400000
2188 11931 2189 1 109.50000 418.400000
2188 11931 2190 1 109.50000 418.400000
2188 11931 2191 1 109.50000 418.400000
2189 11931 2190 1 109.50000 418.400000
2189 11931 2191 1 109.50000 418.400000
2190 11931 2191 1 109.50000 418.400000
2192 11932 2193 1 109.50000 418.400000
2192 11932 2195 1 109.50000 418.400000
2192 11932 10290 1 109.50000 418.400000
2193 11932 2195 1 109.50000 418.400000
2193 11932 10290 1 109.50000 418.400000
2195 11932 10290 1 109.50000 418.400000
2196 11933 2197 1 109.50000 418.400000
2196 11933 2198 1 109.50000 418.400000
2196 11933 2199 1 109.50000 418.400000
2197 11933 2198 1 109.50000 418.400000
2197 11933 2199 1 109.50000 418.400000
2198 11933 2199 1 109.50000 418.400000
2202 11934 2203 1 109.50000 418.400000
2202 11934 2204 1 109.50000 418.400000
2202 11934 2205 1 109.50000 418.400000
2203 11934 2204 1 109.50000 418.400000
2203 11934 2205 1 109.50000 418.400000
2204 11934 2205 1 109.50000 418.400000
1988 11935 2206 1 109.50000 418.400000
1988 11935 2207 1 109.50000 418.400000
1988 11935 2208 1 109.50000 418.400000
2206 11935 2207 1 109.50000 418.400000
2206 11935 2208 1 109.50000 418.400000
2207 11935 2208 1 109.50000 418.400000
1698 11936 2209 1 109.50000 418.400000
1698 11936 2210 1 109.50000 418.400000
1698 11936 2211 1 109.50000 418.400000
2209 11936 2210 1 109.50000 418.400000
2209 11936 2211 1 109.50000 418.400000
2210 11936 2211 1 109.50000 418.400000
2212 11937 2213 1 109.50000 418.400000
2212 11937 2214 1 109.50000 418.400000
2212 11937 2215 1 109.50000 418.400000
2213 11937 2214 1 109.50000 418.400000
2213 11937 2215 1 109.50000 418.400000
2214 11937 2215 1 109.50000 418.400000
450 11938 2216 1 109.50000 418.400000
450 11938 2217 1 109.50000 418.400000
450 11938 11261 1 109.50000 418.400000
2216 11938 2217 1 109.50000 418.400000
2216 11938 11261 1 109.50000 418.400000
2217 11938 11261 1 109.50000 418.400000
2218 11939 2219 1 109.50000 418.400000
2218 11939 2220 1 109.50000 418.400000
2218 11939 2221 1 109.50000 418.400000
2219 11939 2220 1 109.50000 418.400000
2219 11939 2221 1 109.50000 418.400000
2220 11939 2221 1 109.50000 418.400000
2222 11940 2223 1 109.50000 418.400000
2222 11940 2224 1 109.50000 418.400000
2222 11940 2225 1 109.50000 418.400000
2223 11940 2224 1 109.50000 418.400000
2223 11940 2225 1 109.50000 418.400000
2224 11940 2225 1 109.50000 418.400000
2226 11941 2227 1 109.50000 418.400000
2226 11941 2228 1 109.50000 418.400000
2226 11941 2229 1 109.50000 418.400000
2227 11941 2228 1 109.50000 418.400000
2227 11941 2229 1 109.50000 418.400000
2228 11941 2229 1 109.50000 418.400000
2208 11942 2230 1 109.50000 418.400000
2208 11942 2231 1 109.50000 418.400000
2208 11942 2232 1 109.50000 418.400000
2230 11942 2231 1 109.50000 418.400000
2230 11942 2232 1 109.50000 418.400000
2231 11942 2232 1 109.50000 418.400000
2235 11943 2236 1 109.50000 418.400000
2235 11943 2237 1 109.50000 418.400000
2235 11943 2238 1 109.50000 418.400000
2236 11943 2237 1 109.50000 418.400000
2236 11943 2238 1 109.50000 418.400000
2237 11943 2238 1 109.50000 418.400000
1654 11944 2239 1 109.50000 418.400000
1654 11944 2240 1 109.50000 418.400000
1654 11944 2241 1 109.50000 418.400000
2239 11944 2240 1 109.50000 418.400000
2239 11944 2241 1 109.50000 418.400000
2240 11944 2241 1 109.50000 418.400000
2242 11945 2243 1 109.50000 418.400000
2242 11945 2244 1 109.50000 418.400000
2242 11945 2245 1 109.50000 418.400000
2243 11945 2244 1 109.50000 418.400000
2243 11945 2245 1 109.50000 418.400000
2244 11945 2245 1 109.50000 418.400000
2246 11946 2247 1 109.50000 418.400000
2246 11946 2248 1 109.50000 418.400000
2246 11946 2249 1 109.50000 418.400000
2247 11946 2248 1 109.50000 418.400000
2247 11946 2249 1 109.50000 418.400000
2248 11946 2249 1 109.50000 418.400000
1501 11947 2250 1 109.50000 418.400000
1501 11947 2251 1 109.50000 418.400000
1501 11947 2252 1 109.50000 418.400000
2250 11947 2251 1 109.50000 418.400000
2250 11947 2252 1 109.50000 418.400000
2251 11947 2252 1 109.50000 418.400000
2253 11948 2254 1 109.50000 418.400000
2253 11948 2255 1 109.50000 418.400000
2253 11948 2256 1 109.50000 418.400000
2254 11948 2255 1 109.50000 418.400000
2254 11948 2256 1 109.50000 418.400000
2255 11948 2256 1 109.50000 418.400000
2257 11949 2258 1 109.50000 418.400000
2257 11949 2259 1 109.50000 418.400000
2257 11949 2260 1 109.50000 418.400000
2258 11949 2259 1 109.50000 418.400000
2258 11949 2260 1 109.50000 418.400000
2259 11949 2260 1 109.50000 418.400000
2261 11950 2262 1 109.50000 418.400000
2261 11950 2263 1 109.50000 418.400000
2261 11950 2264 1 109.50000 418.400000
2262 11950 2263 1 109.50000 418.400000
2262 11950 2264 1 109.50000 418.400000
2263 11950 2264 1 109.50000 418.400000
2265 11951 2266 1 109.50000 418.400000
2265 11951 2267 1 109.50000 418.400000
2265 11951 2268 1 109.50000 418.400000
2266 11951 2267 1 109.50000 418.400000
2266 11951 2268 1 109.50000 418.400000
2267 11951 2268 1 109.50000 418.400000
2270 11952 2271 1 109.50000 418.400000
2270 11952 2272 1 109.50000 418.400000
2270 11952 10917 1 109.50000 418.400000
2271 11952 2272 1 109.50000 418.400000
2271 11952 10917 1 109.50000 418.400000
2272 11952 10917 1 109.50000 418.400000
2070 11953 2273 1 109.50000 418.400000
2070 11953 2274 1 109.50000 418.400000
2070 11953 2275 1 109.50000 418.400000
2273 11953 2274 1 109.50000 418.400000
2273 11953 2275 1 109.50000 418.400000
2274 11953 2275 1 109.50000 418.400000
2276 11954 2277 1 109.50000 418.400000
2276 11954 2278 1 109.50000 418.400000
2276 11954 2279 1 109.50000 418.400000
2277 11954 2278 1 109.50000 418.400000
2277 11954 2279 1 109.50000 418.400000
2278 11954 2279 1 109.50000 418.400000
2280 11955 2281 1 109.50000 418.400000
2280 11955 2282 1 109.50000 418.400000
2280 11955 2283 1 109.50000 418.400000
2281 11955 2282 1 109.50000 418.400000
2281 11955 2283 1 109.50000 418.400000
2282 11955 2283 1 109.50000 418.400000
2284 11956 2285 1 109.50000 418.400000
2284 11956 2286 1 109.50000 418.400000
2284 11956 2287 1 109.50000 418.400000
2285 11956 2286 1 109.50000 418.400000
2285 11956 2287 1 109.50000 418.400000
2286 11956 2287 1 109.50000 418.400000
1158 11957 2288 1 109.50000 418.400000
1158 11957 2289 1 109.50000 418.400000
1158 11957 2290 1 109.50000 418.400000
2288 11957 2289 1 109.50000 418.400000
2288 11957 2290 1 109.50000 418.400000
2289 11957 2290 1 109.50000 418.400000
2291 11958 2292 1 109.50000 418.400000
2291 11958 2293 1 109.50000 418.400000
2291 11958 2294 1 109.50000 418.400000
2292 11958 2293 1 109.50000 418.400000
2292 11958 2294 1 109.50000 418.400000
2293 11958 2294 1 109.50000 418.400000
2300 11959 2301 1 109.50000 418.400000
2300 11959 2302 1 109.50000 418.400000
2300 11959 2303 1 109.50000 418.400000
2301 11959 2302 1 109.50000 418.400000
2301 11959 2303 1 109.50000 418.400000
2302 11959 2303 1 109.50000 418.400000
2305 11960 2306 1 109.50000 418.400000
2305 11960 2307 1 109.50000 418.400000
2305 11960 2308 1 109.50000 418.400000
2306 11960 2307 1 109.50000 418.400000
2306 11960 2308 1 109.50000 418.400000
2307 11960 2308 1 109.50000 418.400000
2309 11961 2310 1 109.50000 418.400000
2309 11961 2311 1 109.50000 418.400000
2309 11961 2312 1 109.50000 418.400000
2310 11961 2311 1 109.50000 418.400000
2310 11961 2312 1 109.50000 418.400000
2311 11961 2312 1 109.50000 418.400000
2313 11962 2314 1 109.50000 418.400000
2313 11962 2315 1 109.50000 418.400000
2313 11962 2316 1 109.50000 418.400000
2314 11962 2315 1 109.50000 418.400000
2314 11962 2316 1 109.50000 418.400000
2315 11962 2316 1 109.50000 418.400000
2317 11963 2318 1 109.50000 418.400000
2317 11963 2319 1 109.50000 418.400000
2317 11963 2320 1 109.50000 418.400000
2318 11963 2319 1 109.50000 418.400000
2318 11963 2320 1 109.50000 418.400000
2319 11963 2320 1 109.50000 418.400000
1548 11964 2321 1 109.50000 418.400000
1548 11964 2322 1 109.50000 418.400000
1548 11964 2323 1 109.50000 418.400000
2321 11964 2322 1 109.50000 418.400000
2321 11964 2323 1 109.50000 418.400000
2322 11964 2323 1 109.50000 418.400000
2326 11965 2327 1 109.50000 418.400000
2326 11965 2328 1 109.50000 418.400000
2326 11965 2329 1 109.50000 418.400000
2327 11965 2328 1 109.50000 418.400000
2327 11965 2329 1 109.50000 418.400000
2328 11965 2329 1 109.50000 418.400000
581 11966 2330 1 109.50000 418.400000
581 11966 2331 1 109.50000 418.400000
581 11966 5410 1 109.50000 418.400000
2330 11966 2331 1 109.50000 418.400000
2330 11966 5410 1 109.50000 418.400000
2331 11966 5410 1 109.50000 418.400000
2333 11967 2334 1 109.50000 418.400000
2333 11967 2335 1 109.50000 418.400000
2333 11967 2336 1 109.50000 418.400000
2334 11967 2335 1 109.50000 418.400000
2334 11967 2336 1 109.50000 418.400000
2335 11967 2336 1 109.50000 418.400000
2338 11968 2340 1 109.50000 418.400000
2338 11968 6853 1 109.50000 418.400000
2338 11968 10496 1 109.50000 418.400000
2340 11968 6853 1 109.50000 418.400000
2340 11968 10496 1 109.50000 418.400000
6853 11968 10496 1 109.50000 418.400000
1128 11969 2341 1 109.50000 418.400000
1128 11969 2343 1 109.50000 418.400000
1128 11969 4533 1 109.50000 418.400000
2341 11969 2343 1 109.50000 418.400000
2341 11969 4533 1 109.50000 418.400000
2343 11969 4533 1 109.50000 418.400000
2344 11970 2345 1 109.50000 418.400000
2344 11970 2346 1 109.50000 418.400000
2344 11970 2347 1 109.50000 418.400000
2345 11970 2346 1 109.50000 418.400000
2345 11970 2347 1 109.50000 418.400000
2346 11970 2347 1 109.50000 418.400000
2133 11971 2348 1 109.50000 418.400000
2133 11971 2349 1 109.50000 418.400000
2133 11971 9098 1 109.50000 418.400000
2348 11971 2349 1 109.50000 418.400000
2348 11971 9098 1 109.50000 418.400000
2349 11971 9098 1 109.50000 418.400000
1930 11972 2350 1 109.50000 418.400000
1930 11972 2351 1 109.50000 418.400000
1930 11972 2353 1 109.50000 418.400000
2350 11972 2351 1 109.50000 418.400000
2350 11972 2353 1 109.50000 418.400000
2351 11972 2353 1 109.50000 418.400000
2354 11973 2355 1 109.50000 418.400000
2354 11973 2356 1 109.50000 418.400000
2354 11973 2357 1 109.50000 418.400000
2355 11973 2356 1 109.50000 418.400000
2355 11973 2357 1 109.50000 418.400000
2356 11973 2357 1 109.50000 418.400000
2358 11974 2359 1 109.50000 418.400000
2358 11974 2360 1 109.50000 418.400000
2358 11974 2361 1 109.50000 418.400000
2359 11974 2360 1 109.50000 418.400000
2359 11974 2361 1 109.50000 418.400000
2360 11974 2361 1 109.50000 418.400000
2362 11975 2363 1 109.50000 418.400000
2362 11975 2364 1 109.50000 418.400000
2362 11975 2365 1 109.50000 418.400000
2363 11975 2364 1 109.50000 418.400000
2363 11975 2365 1 109.50000 418.400000
2364 11975 2365 1 109.50000 418.400000
2366 11976 2367 1 109.50000 418.400000
2366 11976 2368 1 109.50000 418.400000
2366 11976 2369 1 109.50000 418.400000
2367 11976 2368 1 109.50000 418.400000
2367 11976 2369 1 109.50000 418.400000
2368 11976 2369 1 109.50000 418.400000
2370 11977 2371 1 109.50000 418.400000
2370 11977 2372 1 109.50000 418.400000
2370 11977 2373 1 109.50000 418.400000
2371 11977 2372 1 109.50000 418.400000
2371 11977 2373 1 109.50000 418.400000
2372 11977 2373 1 109.50000 418.400000
2374 11978 2375 1 109.50000 418.400000
2374 11978 2376 1 109.50000 418.400000
2374 11978 2377 1 109.50000 418.400000
2375 11978 2376 1 109.50000 418.400000
2375 11978 2377 1 109.50000 418.400000
2376 11978 2377 1 109.50000 418.400000
2378 11979 2379 1 109.50000 418.400000
2378 11979 2380 1 109.50000 418.400000
2378 11979 2381 1 109.50000 418.400000
2379 11979 2380 1 109.50000 418.400000
2379 11979 2381 1 109.50000 418.400000
2380 11979 2381 1 109.50000 418.400000
2382 11980 2383 1 109.50000 418.400000
2382 11980 2384 1 109.50000 418.400000
2382 11980 2385 1 109.50000 418.400000
2383 11980 2384 1 109.50000 418.400000
2383 11980 2385 1 109.50000 418.400000
2384 11980 2385 1 109.50000 418.400000
2386 11981 2387 1 109.50000 418.400000
2386 11981 2388 1 109.50000 418.400000
2386 11981 2389 1 109.50000 418.400000
2387 11981 2388 1 109.50000 418.400000
2387 11981 2389 1 109.50000 418.400000
2388 11981 2389 1 109.50000 418.400000
2390 11982 2391 1 109.50000 418.400000
2390 11982 2392 1 109.50000 418.400000
2390 11982 2393 1 109.50000 418.400000
2391 11982 2392 1 109.50000 418.400000
2391 11982 2393 1 109.50000 418.400000
2392 11982 2393 1 109.50000 418.400000
2378 11983 2394 1 109.50000 418.400000
2378 11983 2395 1 109.50000 418.400000
2378 11983 2396 1 109.50000 418.400000
2394 11983 2395 1 109.50000 418.400000
2394 11983 2396 1 109.50000 418.400000
2395 11983 2396 1 109.50000 418.400000
2398 11984 2399 1 109.50000 418.400000
2398 11984 2400 1 109.50000 418.400000
2398 11984 4067 1 109.50000 418.400000
2399 11984 2400 1 109.50000 418.400000
2399 11984 4067 1 109.50000 418.400000
2400 11984 4067 1 109.50000 418.400000
2402 11985 2403 1 109.50000 418.400000
2402 11985 2404 1 109.50000 418.400000
2402 11985 2405 1 109.50000 418.400000
2403 11985 2404 1 109.50000 418.400000
2403 11985 2405 1 109.50000 418.400000
2404 11985 2405 1 109.50000 418.400000
2406 11986 2407 1 109.50000 418.400000
2406 11986 2408 1 109.50000 418.400000
2406 11986 2409 1 109.50000 418.400000
2407 11986 2408 1 109.50000 418.400000
2407 11986 2409 1 109.50000 418.400000
2408 11986 2409 1 109.50000 418.400000
487 11987 2410 1 109.50000 418.400000
487 11987 2411 1 109.50000 418.400000
487 11987 2412 1 109.50000 418.400000
2410 11987 2411 1 109.50000 418.400000
2410 11987 2412 1 109.50000 418.400000
2411 11987 2412 1 109.50000 418.400000
2413 11988 2414 1 109.50000 418.400000
2413 11988 2415 1 109.50000 418.400000
2413 11988 2416 1 109.50000 418.400000
2414 11988 2415 1 109.50000 418.400000
2414 11988 2416 1 109.50000 418.400000
2415 11988 2416 1 109.50000 418.400000
2417 11989 2418 1 109.50000 418.400000
2417 11989 2419 1 109.50000 418.400000
2417 11989 2420 1 109.50000 418.400000
2418 11989 2419 1 109.50000 418.400000
2418 11989 2420 1 109.50000 418.400000
2419 11989 2420 1 109.50000 418.400000
2421 11990 2422 1 109.50000 418.400000
2421 11990 2423 1 109.50000 418.400000
2421 11990 2424 1 109.50000 418.400000
2422 11990 2423 1 109.50000 418.400000
2422 11990 2424 1 109.50000 418.400000
2423 11990 2424 1 109.50000 418.400000
2425 11991 2426 1 109.50000 418.400000
2425 11991 2427 1 109.50000 418.400000
2425 11991 2428 1 109.50000 418.400000
2426 11991 2427 1 109.50000 418.400000
2426 11991 2428 1 109.50000 418.400000
2427 11991 2428 1 109.50000 418.400000
2434 11992 2435 1 109.50000 418.400000
2434 11992 2436 1 109.50000 418.400000
2434 11992 2437 1 109.50000 418.400000
2435 11992 2436 1 109.50000 418.400000
2435 11992 2437 1 109.50000 418.400000
2436 11992 2437 1 109.50000 418.400000
2438 11993 2439 1 109.50000 418.400000
2438 11993 2440 1 109.50000 418.400000
2438 11993 2441 1 109.50000 418.400000
2439 11993 2440 1 109.50000 418.400000
2439 11993 2441 1 109.50000 418.400000
2440 11993 2441 1 109.50000 418.400000
2442 11994 2443 1 109.50000 418.400000
2442 11994 2444 1 109.50000 418.400000
2442 11994 2445 1 109.50000 418.400000
2443 11994 2444 1 109.50000 418.400000
2443 11994 2445 1 109.50000 418.400000
2444 11994 2445 1 109.50000 418.400000
2446 11995 2447 1 109.50000 418.400000
2446 11995 2448 1 109.50000 418.400000
2446 11995 2449 1 109.50000 418.400000
2447 11995 2448 1 109.50000 418.400000
2447 11995 2449 1 109.50000 418.400000
2448 11995 2449 1 109.50000 418.400000
1576 11996 2453 1 109.50000 418.400000
1576 11996 2454 1 109.50000 418.400000
1576 11996 2455 1 109.50000 418.400000
2453 11996 2454 1 109.50000 418.400000
2453 11996 2455 1 109.50000 418.400000
2454 11996 2455 1 109.50000 418.400000
2458 11997 2459 1 109.50000 418.400000
2458 11997 2460 1 109.50000 418.400000
2458 11997 2461 1 109.50000 418.400000
2459 11997 2460 1 109.50000 418.400000
2459 11997 2461 1 109.50000 418.400000
2460 11997 2461 1 109.50000 418.400000
2464 11998 2465 1 109.50000 418.400000
2464 11998 2466 1 109.50000 418.400000
2464 11998 2467 1 109.50000 418.400000
2465 11998 2466 1 109.50000 418.400000
2465 11998 2467 1 109.50000 418.400000
2466 11998 2467 1 109.50000 418.400000
2468 11999 2469 1 109.50000 418.400000
2468 11999 2470 1 109.50000 418.400000
2468 11999 2471 1 109.50000 418.400000
2469 11999 2470 1 109.50000 418.400000
2469 11999 2471 1 109.50000 418.400000
2470 11999 2471 1 109.50000 418.400000
2472 12000 2473 1 109.50000 418.400000
2472 12000 2474 1 109.50000 418.400000
2472 12000 2475 1 109.50000 418.400000
2473 12000 2474 1 109.50000 418.400000
2473 12000 2475 1 109.50000 418.400000
2474 12000 2475 1 109.50000 418.400000
2476 12001 2477 1 109.50000 418.400000
2476 12001 2478 1 109.50000 418.400000
2476 12001 10206 1 109.50000 418.400000
2477 12001 2478 1 109.50000 418.400000
2477 12001 10206 1 109.50000 418.400000
2478 12001 10206 1 109.50000 418.400000
280 12002 2480 1 109.50000 418.400000
280 12002 2481 1 109.50000 418.400000
280 12002 2482 1 109.50000 418.400000
2480 12002 2481 1 109.50000 418.400000
2480 12002 2482 1 109.50000 418.400000
2481 12002 2482 1 109.50000 418.400000
2486 12003 2487 1 109.50000 418.400000
2486 12003 2488 1 109.50000 418.400000
2486 12003 2489 1 109.50000 418.400000
2487 12003 2488 1 109.50000 418.400000
2487 12003 2489 1 109.50000 418.400000
2488 12003 2489 1 109.50000 418.400000
2496 12004 2497 1 109.50000 418.400000
2496 12004 2498 1 109.50000 418.400000
2496 12004 2499 1 109.50000 418.400000
2497 12004 2498 1 109.50000 418.400000
2497 12004 2499 1 109.50000 418.400000
2498 12004 2499 1 109.50000 418.400000
1324 12005 2502 1 109.50000 418.400000
1324 12005 2503 1 109.50000 418.400000
1324 12005 2504 1 109.50000 418.400000
2502 12005 2503 1 109.50000 418.400000
2502 12005 2504 1 109.50000 418.400000
2503 12005 2504 1 109.50000 418.400000
2508 12006 2509 1 109.50000 418.400000
2508 12006 2510 1 109.50000 418.400000
2508 12006 2511 1 109.50000 418.400000
2509 12006 2510 1 109.50000 418.400000
2509 12006 2511 1 109.50000 418.400000
2510 12006 2511 1 109.50000 418.400000
2512 12007 2513 1 109.50000 418.400000
2512 12007 2514 1 109.50000 418.400000
2512 12007 2515 1 109.50000 418.400000
2513 12007 2514 1 109.50000 418.400000
2513 12007 2515 1 109.50000 418.400000
2514 12007 2515 1 109.50000 418.400000
2516 12008 2517 1 109.50000 418.400000
2516 12008 2518 1 109.50000 418.400000
2516 12008 2519 1 109.50000 418.400000
2517 12008 2518 1 109.50000 418.400000
2517 12008 2519 1 109.50000 418.400000
2518 12008 2519 1 109.50000 418.400000
2520 12009 2521 1 109.50000 418.400000
2520 12009 2522 1 109.50000 418.400000
2520 12009 2523 1 109.50000 418.400000
2521 12009 2522 1 109.50000 418.400000
2521 12009 2523 1 109.50000 418.400000
2522 12009 2523 1 109.50000 418.400000
2524 12010 2525 1 109.50000 418.400000
2524 12010 2526 1 109.50000 418.400000
2524 12010 2527 1 109.50000 418.400000
2525 12010 2526 1 109.50000 418.400000
2525 12010 2527 1 109.50000 418.400000
2526 12010 2527 1 109.50000 418.400000
2528 12011 2529 1 109.50000 418.400000
2528 12011 2530 1 109.50000 418.400000
2528 12011 2531 1 109.50000 418.400000
2529 12011 2530 1 109.50000 418.400000
2529 12011 2531 1 109.50000 418.400000
2530 12011 2531 1 109.50000 418.400000
2532 12012 2533 1 109.50000 418.400000
2532 12012 2534 1 109.50000 418.400000
2532 12012 2535 1 109.50000 418.400000
2533 12012 2534 1 109.50000 418.400000
2533 12012 2535 1 109.50000 418.400000
2534 12012 2535 1 109.50000 418.400000
2468 12013 2536 1 109.50000 418.400000
2468 12013 2537 1 109.50000 418.400000
2468 12013 2538 1 109.50000 418.400000
2536 12013 2537 1 109.50000 418.400000
2536 12013 2538 1 109.50000 418.400000
2537 12013 2538 1 109.50000 418.400000
2328 12014 2539 1 109.50000 418.400000
2328 12014 2540 1 109.50000 418.400000
2328 12014 2541 1 109.50000 418.400000
2539 12014 2540 1 109.50000 418.400000
2539 12014 2541 1 109.50000 418.400000
2540 12014 2541 1 109.50000 418.400000
230 12015 2542 1 109.50000 418.400000
230 12015 2543 1 109.50000 418.400000
230 12015 2544 1 109.50000 418.400000
2542 12015 2543 1 109.50000 418.400000
2542 12015 2544 1 109.50000 418.400000
2543 12015 2544 1 109.50000 418.400000
2545 12016 2546 1 109.50000 418.400000
2545 12016 2547 1 109.50000 418.400000
2545 12016 2548 1 109.50000 418.400000
2546 12016 2547 1 109.50000 418.400000
2546 12016 2548 1 109.50000 418.400000
2547 12016 2548 1 109.50000 418.400000
2549 12017 2550 1 109.50000 418.400000
2549 12017 2551 1 109.50000 418.400000
2549 12017 2552 1 109.50000 418.400000
2550 12017 2551 1 109.50000 418.400000
2550 12017 2552 1 109.50000 418.400000
2551 12017 2552 1 109.50000 418.400000
2553 12018 2554 1 109.50000 418.400000
2553 12018 2555 1 109.50000 418.400000
2553 12018 2556 1 109.50000 418.400000
2554 12018 2555 1 109.50000 418.400000
2554 12018 2556 1 109.50000 418.400000
2555 12018 2556 1 109.50000 418.400000
1964 12019 2561 1 109.50000 418.400000
1964 12019 2562 1 109.50000 418.400000
1964 12019 2563 1 109.50000 418.400000
2561 12019 2562 1 109.50000 418.400000
2561 12019 2563 1 109.50000 418.400000
2562 12019 2563 1 109.50000 418.400000
690 12020 2564 1 109.50000 418.400000
690 12020 2565 1 109.50000 418.400000
690 12020 2566 1 109.50000 418.400000
2564 12020 2565 1 109.50000 418.400000
2564 12020 2566 1 109.50000 418.400000
2565 12020 2566 1 109.50000 418.400000
2567 12021 2568 1 109.50000 418.400000
2567 12021 2569 1 109.50000 418.400000
2567 12021 2570 1 109.50000 418.400000
2568 12021 2569 1 109.50000 418.400000
2568 12021 2570 1 109.50000 418.400000
2569 12021 2570 1 109.50000 418.400000
2400 12022 2571 1 109.50000 418.400000
2400 12022 2572 1 109.50000 418.400000
2400 12022 3759 1 109.50000 418.400000
2571 12022 2572 1 109.50000 418.400000
2571 12022 3759 1 109.50000 418.400000
2572 12022 3759 1 109.50000 418.400000
2574 12023 2575 1 109.50000 418.400000
2574 12023 2576 1 109.50000 418.400000
2574 12023 2577 1 109.50000 418.400000
2575 12023 2576 1 109.50000 418.400000
2575 12023 2577 1 109.50000 418.400000
2576 12023 2577 1 109.50000 418.400000
1898 12024 2578 1 109.50000 418.400000
1898 12024 2579 1 109.50000 418.400000
1898 12024 2580 1 109.50000 418.400000
2578 12024 2579 1 109.50000 418.400000
2578 12024 2580 1 109.50000 418.400000
2579 12024 2580 1 109.50000 418.400000
1325 12025 2581 1 109.50000 418.400000
1325 12025 2582 1 109.50000 418.400000
1325 12025 11330 1 109.50000 418.400000
2581 12025 2582 1 109.50000 418.400000
2581 12025 11330 1 109.50000 418.400000
2582 12025 11330 1 109.50000 418.400000
2584 12026 2585 1 109.50000 418.400000
2584 12026 2586 1 109.50000 418.400000
2584 12026 6496 1 109.50000 418.400000
2585 12026 2586 1 109.50000 418.400000
2585 12026 6496 1 109.50000 418.400000
2586 12026 6496 1 109.50000 418.400000
2589 12027 2590 1 109.50000 418.400000
2589 12027 2591 1 109.50000 418.400000
2589 12027 11192 1 109.50000 418.400000
2590 12027 2591 1 109.50000 418.400000
2590 12027 11192 1 109.50000 418.400000
2591 12027 11192 1 109.50000 418.400000
847 12028 2592 1 109.50000 418.400000
847 12028 2593 1 109.50000 418.400000
847 12028 2594 1 109.50000 418.400000
2592 12028 2593 1 109.50000 418.400000
2592 12028 2594 1 109.50000 418.400000
2593 12028 2594 1 109.50000 418.400000
628 12029 2595 1 109.50000 418.400000
628 12029 2596 1 109.50000 418.400000
628 12029 2597 1 109.50000 418.400000
2595 12029 2596 1 109.50000 418.400000
2595 12029 2597 1 109.50000 418.400000
2596 12029 2597 1 109.50000 418.400000
2598 12030 2599 1 109.50000 418.400000
2598 12030 2600 1 109.50000 418.400000
2598 12030 2601 1 109.50000 418.400000
2599 12030 2600 1 109.50000 418.400000
2599 12030 2601 1 109.50000 418.400000
2600 12030 2601 1 109.50000 418.400000
895 12031 2602 1 109.50000 418.400000
895 12031 2603 1 109.50000 418.400000
895 12031 11212 1 109.50000 418.400000
2602 12031 2603 1 109.50000 418.400000
2602 12031 11212 1 109.50000 418.400000
2603 12031 11212 1 109.50000 418.400000
2604 12032 2989 1 109.50000 418.400000
2604 12032 2990 1 109.50000 418.400000
2604 12032 9329 1 109.50000 418.400000
2989 12032 2990 1 109.50000 418.400000
2989 12032 9329 1 109.50000 418.400000
2990 12032 9329 1 109.50000 418.400000
2606 12033 2608 1 109.50000 418.400000
2606 12033 2609 1 109.50000 418.400000
2606 12033 9020 1 109.50000 418.400000
2608 12033 2609 1 109.50000 418.400000
2608 12033 9020 1 109.50000 418.400000
2609 12033 9020 1 109.50000 418.400000
2610 12034 2611 1 109.50000 418.400000
2610 12034 2612 1 109.50000 418.400000
2610 12034 7265 1 109.50000 418.400000
2611 12034 2612 1 109.50000 418.400000
2611 12034 7265 1 109.50000 418.400000
2612 12034 7265 1 109.50000 418.400000
1298 12035 2613 1 109.50000 418.400000
1298 12035 2614 1 109.50000 418.400000
1298 12035 2615 1 109.50000 418.400000
2613 12035 2614 1 109.50000 418.400000
2613 12035 2615 1 109.50000 418.400000
2614 12035 2615 1 109.50000 418.400000
1313 12036 2616 1 109.50000 418.400000
1313 12036 2617 1 109.50000 418.400000
1313 12036 2618 1 109.50000 418.400000
2616 12036 2617 1 109.50000 418.400000
2616 12036 2618 1 109.50000 418.400000
2617 12036 2618 1 109.50000 418.400000
2619 12037 2620 1 109.50000 418.400000
2619 12037 2621 1 109.50000 418.400000
2619 12037 2622 1 109.50000 418.400000
2620 12037 2621 1 109.50000 418.400000
2620 12037 2622 1 109.50000 418.400000
2621 12037 2622 1 109.50000 418.400000
2626 12038 2627 1 109.50000 418.400000
2626 12038 2628 1 109.50000 418.400000
2626 12038 6785 1 109.50000 418.400000
2627 12038 2628 1 109.50000 418.400000
2627 12038 6785 1 109.50000 418.400000
2628 12038 6785 1 109.50000 418.400000
2496 12039 2629 1 109.50000 418.400000
2496 12039 2630 1 109.50000 418.400000
2496 12039 2631 1 109.50000 418.400000
2629 12039 2630 1 109.50000 418.400000
2629 12039 2631 1 109.50000 418.400000
2630 12039 2631 1 109.50000 418.400000
2632 12040 2633 1 109.50000 418.400000
2632 12040 2634 1 109.50000 418.400000
2632 12040 2635 1 109.50000 418.400000
2633 12040 2634 1 109.50000 418.400000
2633 12040 2635 1 109.50000 418.400000
2634 12040 2635 1 109.50000 418.400000
2636 12041 2637 1 109.50000 418.400000
2636 12041 2638 1 109.50000 418.400000
2636 12041 2639 1 109.50000 418.400000
2637 12041 2638 1 109.50000 418.400000
2637 12041 2639 1 109.50000 418.400000
2638 12041 2639 1 109.50000 418.400000
2640 12042 2641 1 109.50000 418.400000
2640 12042 2642 1 109.50000 418.400000
2640 12042 2643 1 109.50000 418.400000
2641 12042 2642 1 109.50000 418.400000
2641 12042 2643 1 109.50000 418.400000
2642 12042 2643 1 109.50000 418.400000
1434 12043 2644 1 109.50000 418.400000
1434 12043 2645 1 109.50000 418.400000
1434 12043 2646 1 109.50000 418.400000
2644 12043 2645 1 109.50000 418.400000
2644 12043 2646 1 109.50000 418.400000
2645 12043 2646 1 109.50000 418.400000
2647 12044 2648 1 109.50000 418.400000
2647 12044 2650 1 109.50000 418.400000
2647 12044 11078 1 109.50000 418.400000
2648 12044 2650 1 109.50000 418.400000
2648 12044 11078 1 109.50000 418.400000
2650 12044 11078 1 109.50000 418.400000
2651 12045 2652 1 109.50000 418.400000
2651 12045 2653 1 109.50000 418.400000
2651 12045 11321 1 109.50000 418.400000
2652 12045 2653 1 109.50000 418.400000
2652 12045 11321 1 109.50000 418.400000
2653 12045 11321 1 109.50000 418.400000
2654 12046 2655 1 109.50000 418.400000
2654 12046 2656 1 109.50000 418.400000
2654 12046 2657 1 109.50000 418.400000
2655 12046 2656 1 109.50000 418.400000
2655 12046 2657 1 109.50000 418.400000
2656 12046 2657 1 109.50000 418.400000
875 12047 1005 1 109.50000 418.400000
875 12047 2658 1 109.50000 418.400000
875 12047 2659 1 109.50000 418.400000
1005 12047 2658 1 109.50000 418.400000
1005 12047 2659 1 109.50000 418.400000
2658 12047 2659 1 109.50000 418.400000
2660 12048 2661 1 109.50000 418.400000
2660 12048 2662 1 109.50000 418.400000
2660 12048 2663 1 109.50000 418.400000
2661 12048 2662 1 109.50000 418.400000
2661 12048 2663 1 109.50000 418.400000
2662 12048 2663 1 109.50000 418.400000
756 12049 1161 1 109.50000 418.400000
756 12049 2664 1 109.50000 418.400000
756 12049 2665 1 109.50000 418.400000
1161 12049 2664 1 109.50000 418.400000
1161 12049 2665 1 109.50000 418.400000
2664 12049 2665 1 109.50000 418.400000
695 12050 769 1 109.50000 418.400000
695 12050 2666 1 109.50000 418.400000
695 12050 2667 1 109.50000 418.400000
769 12050 2666 1 109.50000 418.400000
769 12050 2667 1 109.50000 418.400000
2666 12050 2667 1 109.50000 418.400000
2668 12051 2669 1 109.50000 418.400000
2668 12051 2670 1 109.50000 418.400000
2668 12051 2671 1 109.50000 418.400000
2669 12051 2670 1 109.50000 418.400000
2669 12051 2671 1 109.50000 418.400000
2670 12051 2671 1 109.50000 418.400000
2672 12052 2673 1 109.50000 418.400000
2672 12052 2674 1 109.50000 418.400000
2672 12052 2675 1 109.50000 418.400000
2673 12052 2674 1 109.50000 418.400000
2673 12052 2675 1 109.50000 418.400000
2674 12052 2675 1 109.50000 418.400000
2676 12053 2677 1 109.50000 418.400000
2676 12053 2678 1 109.50000 418.400000
2676 12053 2679 1 109.50000 418.400000
2677 12053 2678 1 109.50000 418.400000
2677 12053 2679 1 109.50000 418.400000
2678 12053 2679 1 109.50000 418.400000
2680 12054 2681 1 109.50000 418.400000
2680 12054 2682 1 109.50000 418.400000
2680 12054 3309 1 109.50000 418.400000
2681 12054 2682 1 109.50000 418.400000
2681 12054 3309 1 109.50000 418.400000
2682 12054 3309 1 109.50000 418.400000
2684 12055 2685 1 109.50000 418.400000
2684 12055 2686 1 109.50000 418.400000
2684 12055 2687 1 109.50000 418.400000
2685 12055 2686 1 109.50000 418.400000
2685 12055 2687 1 109.50000 418.400000
2686 12055 2687 1 109.50000 418.400000
2688 12056 2689 1 109.50000 418.400000
2688 12056 2690 1 109.50000 418.400000
2688 12056 2691 1 109.50000 418.400000
2689 12056 2690 1 109.50000 418.400000
2689 12056 2691 1 109.50000 418.400000
2690 12056 2691 1 109.50000 418.400000
2692 12057 2693 1 109.50000 418.400000
2692 12057 2694 1 109.50000 418.400000
2692 12057 2695 1 109.50000 418.400000
2693 12057 2694 1 109.50000 418.400000
2693 12057 2695 1 109.50000 418.400000
2694 12057 2695 1 109.50000 418.400000
2696 12058 2697 1 109.50000 418.400000
2696 12058 2698 1 109.50000 418.400000
2696 12058 11138 1 109.50000 418.400000
2697 12058 2698 1 109.50000 418.400000
2697 12058 11138 1 109.50000 418.400000
2698 12058 11138 1 109.50000 418.400000
2583 12059 2699 1 109.50000 418.400000
2583 12059 2700 1 109.50000 418.400000
2583 12059 2701 1 109.50000 418.400000
2699 12059 2700 1 109.50000 418.400000
2699 12059 2701 1 109.50000 418.400000
2700 12059 2701 1 109.50000 418.400000
2702 12060 2703 1 109.50000 418.400000
2702 12060 2704 1 109.50000 418.400000
2702 12060 2705 1 109.50000 418.400000
2703 12060 2704 1 109.50000 418.400000
2703 12060 2705 1 109.50000 418.400000
2704 12060 2705 1 109.50000 418.400000
2428 12061 2706 1 109.50000 418.400000
2428 12061 2707 1 109.50000 418.400000
2428 12061 2708 1 109.50000 418.400000
2706 12061 2707 1 109.50000 418.400000
2706 12061 2708 1 109.50000 418.400000
2707 12061 2708 1 109.50000 418.400000
2709 12062 2710 1 109.50000 418.400000
2709 12062 2711 1 109.50000 418.400000
2709 12062 2712 1 109.50000 418.400000
2710 12062 2711 1 109.50000 418.400000
2710 12062 2712 1 109.50000 418.400000
2711 12062 2712 1 109.50000 418.400000
2713 12063 2714 1 109.50000 418.400000
2713 12063 2715 1 109.50000 418.400000
2713 12063 2716 1 109.50000 418.400000
2714 12063 2715 1 109.50000 418.400000
2714 12063 2716 1 109.50000 418.400000
2715 12063 2716 1 109.50000 418.400000
2717 12064 2718 1 109.50000 418.400000
2717 12064 2719 1 109.50000 418.400000
2717 12064 2720 1 109.50000 418.400000
2718 12064 2719 1 109.50000 418.400000
2718 12064 2720 1 109.50000 418.400000
2719 12064 2720 1 109.50000 418.400000
2721 12065 2722 1 109.50000 418.400000
2721 12065 2723 1 109.50000 418.400000
2721 12065 2724 1 109.50000 418.400000
2722 12065 2723 1 109.50000 418.400000
2722 12065 2724 1 109.50000 418.400000
2723 12065 2724 1 109.50000 418.400000
2725 12066 2726 1 109.50000 418.400000
2725 12066 2727 1 109.50000 418.400000
2725 12066 2728 1 109.50000 418.400000
2726 12066 2727 1 109.50000 418.400000
2726 12066 2728 1 109.50000 418.400000
2727 12066 2728 1 109.50000 418.400000
828 12067 2732 1 109.50000 418.400000
828 12067 2733 1 109.50000 418.400000
828 12067 2734 1 109.50000 418.400000
2732 12067 2733 1 109.50000 418.400000
2732 12067 2734 1 109.50000 418.400000
2733 12067 2734 1 109.50000 418.400000
982 12068 2735 1 109.50000 418.400000
982 12068 2736 1 109.50000 418.400000
982 12068 2737 1 109.50000 418.400000
2735 12068 2736 1 109.50000 418.400000
2735 12068 2737 1 109.50000 418.400000
2736 12068 2737 1 109.50000 418.400000
2738 12069 2739 1 109.50000 418.400000
2738 12069 2740 1 109.50000 418.400000
2738 12069 2741 1 109.50000 418.400000
2739 12069 2740 1 109.50000 418.400000
2739 12069 2741 1 109.50000 418.400000
2740 12069 2741 1 109.50000 418.400000
2742 12070 2743 1 109.50000 418.400000
2742 12070 2744 1 109.50000 418.400000
2742 12070 2745 1 109.50000 418.400000
2743 12070 2744 1 109.50000 418.400000
2743 12070 2745 1 109.50000 418.400000
2744 12070 2745 1 109.50000 418.400000
1520 12071 2746 1 109.50000 418.400000
1520 12071 2747 1 109.50000 418.400000
1520 12071 2748 1 109.50000 418.400000
2746 12071 2747 1 109.50000 418.400000
2746 12071 2748 1 109.50000 418.400000
2747 12071 2748 1 109.50000 418.400000
2749 12072 2750 1 109.50000 418.400000
2749 12072 2751 1 109.50000 418.400000
2749 12072 2752 1 109.50000 418.400000
2750 12072 2751 1 109.50000 418.400000
2750 12072 2752 1 109.50000 418.400000
2751 12072 2752 1 109.50000 418.400000
2753 12073 2755 1 109.50000 418.400000
2753 12073 2756 1 109.50000 418.400000
2753 12073 5577 1 109.50000 418.400000
2755 12073 2756 1 109.50000 418.400000
2755 12073 5577 1 109.50000 418.400000
2756 12073 5577 1 109.50000 418.400000
2757 12074 2758 1 109.50000 418.400000
2757 12074 2759 1 109.50000 418.400000
2757 12074 2760 1 109.50000 418.400000
2758 12074 2759 1 109.50000 418.400000
2758 12074 2760 1 109.50000 418.400000
2759 12074 2760 1 109.50000 418.400000
1819 12075 2761 1 109.50000 418.400000
1819 12075 2762 1 109.50000 418.400000
1819 12075 2763 1 109.50000 418.400000
2761 12075 2762 1 109.50000 418.400000
2761 12075 2763 1 109.50000 418.400000
2762 12075 2763 1 109.50000 418.400000
2764 12076 2765 1 109.50000 418.400000
2764 12076 2766 1 109.50000 418.400000
2764 12076 2767 1 109.50000 418.400000
2765 12076 2766 1 109.50000 418.400000
2765 12076 2767 1 109.50000 418.400000
2766 12076 2767 1 109.50000 418.400000
171 12077 2768 1 109.50000 418.400000
171 12077 2769 1 109.50000 418.400000
171 12077 2770 1 109.50000 418.400000
2768 12077 2769 1 109.50000 418.400000
2768 12077 2770 1 109.50000 418.400000
2769 12077 2770 1 109.50000 418.400000
2771 12078 2773 1 109.50000 418.400000
2771 12078 2774 1 109.50000 418.400000
2771 12078 6883 1 109.50000 418.400000
2773 12078 2774 1 109.50000 418.400000
2773 12078 6883 1 109.50000 418.400000
2774 12078 6883 1 109.50000 418.400000
2775 12079 2776 1 109.50000 418.400000
2775 12079 11183 1 109.50000 418.400000
2775 12079 11265 1 109.50000 418.400000
2776 12079 11183 1 109.50000 418.400000
2776 12079 11265 1 109.50000 418.400000
11183 12079 11265 1 109.50000 418.400000
734 12080 2777 1 109.50000 418.400000
734 12080 2778 1 109.50000 418.400000
734 12080 2779 1 109.50000 418.400000
2777 12080 2778 1 109.50000 418.400000
2777 12080 2779 1 109.50000 418.400000
2778 12080 2779 1 109.50000 418.400000
2780 12081 2781 1 109.50000 418.400000
2780 12081 2782 1 109.50000 418.400000
2780 12081 2783 1 109.50000 418.400000
2781 12081 2782 1 109.50000 418.400000
2781 12081 2783 1 109.50000 418.400000
2782 12081 2783 1 109.50000 418.400000
2784 12082 2785 1 109.50000 418.400000
2784 12082 2786 1 109.50000 418.400000
2784 12082 2787 1 109.50000 418.400000
2785 12082 2786 1 109.50000 418.400000
2785 12082 2787 1 109.50000 418.400000
2786 12082 2787 1 109.50000 418.400000
911 12083 2788 1 109.50000 418.400000
911 12083 2789 1 109.50000 418.400000
911 12083 2790 1 109.50000 418.400000
2788 12083 2789 1 109.50000 418.400000
2788 12083 2790 1 109.50000 418.400000
2789 12083 2790 1 109.50000 418.400000
301 12084 2791 1 109.50000 418.400000
301 12084 2792 1 109.50000 418.400000
301 12084 4806 1 109.50000 418.400000
2791 12084 2792 1 109.50000 418.400000
2791 12084 4806 1 109.50000 418.400000
2792 12084 4806 1 109.50000 418.400000
2794 12085 2795 1 109.50000 418.400000
2794 12085 2796 1 109.50000 418.400000
2794 12085 10676 1 109.50000 418.400000
2795 12085 2796 1 109.50000 418.400000
2795 12085 10676 1 109.50000 418.400000
2796 12085 10676 1 109.50000 418.400000
191 12086 322 1 109.50000 418.400000
191 12086 2798 1 109.50000 418.400000
191 12086 2799 1 109.50000 418.400000
322 12086 2798 1 109.50000 418.400000
322 12086 2799 1 109.50000 418.400000
2798 12086 2799 1 109.50000 418.400000
699 12087 2800 1 109.50000 418.400000
699 12087 2801 1 109.50000 418.400000
699 12087 8976 1 109.50000 418.400000
2800 12087 2801 1 109.50000 418.400000
2800 12087 8976 1 109.50000 418.400000
2801 12087 8976 1 109.50000 418.400000
2058 12088 2803 1 109.50000 418.400000
2058 12088 2804 1 109.50000 418.400000
2058 12088 2805 1 109.50000 418.400000
2803 12088 2804 1 109.50000 418.400000
2803 12088 2805 1 109.50000 418.400000
2804 12088 2805 1 109.50000 418.400000
2806 12089 2807 1 109.50000 418.400000
2806 12089 2808 1 109.50000 418.400000
2806 12089 2809 1 109.50000 418.400000
2807 12089 2808 1 109.50000 418.400000
2807 12089 2809 1 109.50000 418.400000
2808 12089 2809 1 109.50000 418.400000
2810 12090 2811 1 109.50000 418.400000
2810 12090 2812 1 109.50000 418.400000
2810 12090 2813 1 109.50000 418.400000
2811 12090 2812 1 109.50000 418.400000
2811 12090 2813 1 109.50000 418.400000
2812 12090 2813 1 109.50000 418.400000
435 12091 436 1 109.50000 418.400000
435 12091 2814 1 109.50000 418.400000
435 12091 2816 1 109.50000 418.400000
436 12091 2814 1 109.50000 418.400000
436 12091 2816 1 109.50000 418.400000
2814 12091 2816 1 109.50000 418.400000
2818 12092 2819 1 109.50000 418.400000
2818 12092 2820 1 109.50000 418.400000
2818 12092 2821 1 109.50000 418.400000
2819 12092 2820 1 109.50000 418.400000
2819 12092 2821 1 109.50000 418.400000
2820 12092 2821 1 109.50000 418.400000
1494 12093 2822 1 109.50000 418.400000
1494 12093 2823 1 109.50000 418.400000
1494 12093 2824 1 109.50000 418.400000
2822 12093 2823 1 109.50000 418.400000
2822 12093 2824 1 109.50000 418.400000
2823 12093 2824 1 109.50000 418.400000
2825 12094 2826 1 109.50000 418.400000
2825 12094 2827 1 109.50000 418.400000
2825 12094 2828 1 109.50000 418.400000
2826 12094 2827 1 109.50000 418.400000
2826 12094 2828 1 109.50000 418.400000
2827 12094 2828 1 109.50000 418.400000
1803 12095 2829 1 109.50000 418.400000
1803 12095 2830 1 109.50000 418.400000
1803 12095 2831 1 109.50000 418.400000
2829 12095 2830 1 109.50000 418.400000
2829 12095 2831 1 109.50000 418.400000
2830 12095 2831 1 109.50000 418.400000
1186 12096 1994 1 109.50000 418.400000
1186 12096 2832 1 109.50000 418.400000
1186 12096 2833 1 109.50000 418.400000
1994 12096 2832 1 109.50000 418.400000
1994 12096 2833 1 109.50000 418.400000
2832 12096 2833 1 109.50000 418.400000
635 12097 2834 1 109.50000 418.400000
635 12097 2835 1 109.50000 418.400000
635 12097 2836 1 109.50000 418.400000
2834 12097 2835 1 109.50000 418.400000
2834 12097 2836 1 109.50000 418.400000
2835 12097 2836 1 109.50000 418.400000
1027 12098 2837 1 109.50000 418.400000
1027 12098 2838 1 109.50000 418.400000
1027 12098 2839 1 109.50000 418.400000
2837 12098 2838 1 109.50000 418.400000
2837 12098 2839 1 109.50000 418.400000
2838 12098 2839 1 109.50000 418.400000
2840 12099 2841 1 109.50000 418.400000
2840 12099 2842 1 109.50000 418.400000
2840 12099 2843 1 109.50000 418.400000
2841 12099 2842 1 109.50000 418.400000
2841 12099 2843 1 109.50000 418.400000
2842 12099 2843 1 109.50000 418.400000
2844 12100 2845 1 109.50000 418.400000
2844 12100 2846 1 109.50000 418.400000
2844 12100 2847 1 109.50000 418.400000
2845 12100 2846 1 109.50000 418.400000
2845 12100 2847 1 109.50000 418.400000
2846 12100 2847 1 109.50000 418.400000
300 12101 2848 1 109.50000 418.400000
300 12101 2849 1 109.50000 418.400000
300 12101 2850 1 109.50000 418.400000
2848 12101 2849 1 109.50000 418.400000
2848 12101 2850 1 109.50000 418.400000
2849 12101 2850 1 109.50000 418.400000
1763 12102 2851 1 109.50000 418.400000
1763 12102 2852 1 109.50000 418.400000
1763 12102 2853 1 109.50000 418.400000
2851 12102 2852 1 109.50000 418.400000
2851 12102 2853 1 109.50000 418.400000
2852 12102 2853 1 109.50000 418.400000
105 12103 2854 1 109.50000 418.400000
105 12103 2855 1 109.50000 418.400000
105 12103 2856 1 109.50000 418.400000
2854 12103 2855 1 109.50000 418.400000
2854 12103 2856 1 109.50000 418.400000
2855 12103 2856 1 109.50000 418.400000
1216 12104 2857 1 109.50000 418.400000
1216 12104 11184 1 109.50000 418.400000
1216 12104 11296 1 109.50000 418.400000
2857 12104 11184 1 109.50000 418.400000
2857 12104 11296 1 109.50000 418.400000
11184 12104 11296 1 109.50000 418.400000
2858 12105 2859 1 109.50000 418.400000
2858 12105 2860 1 109.50000 418.400000
2858 12105 7512 1 109.50000 418.400000
2859 12105 2860 1 109.50000 418.400000
2859 12105 7512 1 109.50000 418.400000
2860 12105 7512 1 109.50000 418.400000
261 12106 470 1 109.50000 418.400000
261 12106 2862 1 109.50000 418.400000
261 12106 2863 1 109.50000 418.400000
470 12106 2862 1 109.50000 418.400000
470 12106 2863 1 109.50000 418.400000
2862 12106 2863 1 109.50000 418.400000
2550 12107 2864 1 109.50000 418.400000
2550 12107 2865 1 109.50000 418.400000
2550 12107 4860 1 109.50000 418.400000
2864 12107 2865 1 109.50000 418.400000
2864 12107 4860 1 109.50000 418.400000
2865 12107 4860 1 109.50000 418.400000
2867 12108 2868 1 109.50000 418.400000
2867 12108 2869 1 109.50000 418.400000
2867 12108 2870 1 109.50000 418.400000
2868 12108 2869 1 109.50000 418.400000
2868 12108 2870 1 109.50000 418.400000
2869 12108 2870 1 109.50000 418.400000
1142 12109 2871 1 109.50000 418.400000
1142 12109 2872 1 109.50000 418.400000
1142 12109 2873 1 109.50000 418.400000
2871 12109 2872 1 109.50000 418.400000
2871 12109 2873 1 109.50000 418.400000
2872 12109 2873 1 109.50000 418.400000
1206 12110 2874 1 109.50000 418.400000
1206 12110 2875 1 109.50000 418.400000
1206 12110 2876 1 109.50000 418.400000
2874 12110 2875 1 109.50000 418.400000
2874 12110 2876 1 109.50000 418.400000
2875 12110 2876 1 109.50000 418.400000
2040 12111 2877 1 109.50000 418.400000
2040 12111 2878 1 109.50000 418.400000
2040 12111 2879 1 109.50000 418.400000
2877 12111 2878 1 109.50000 418.400000
2877 12111 2879 1 109.50000 418.400000
2878 12111 2879 1 109.50000 418.400000
2880 12112 2881 1 109.50000 418.400000
2880 12112 2882 1 109.50000 418.400000
2880 12112 2883 1 109.50000 418.400000
2881 12112 2882 1 109.50000 418.400000
2881 12112 2883 1 109.50000 418.400000
2882 12112 2883 1 109.50000 418.400000
2559 12113 2884 1 109.50000 418.400000
2559 12113 2885 1 109.50000 418.400000
2559 12113 11323 1 109.50000 418.400000
2884 12113 2885 1 109.50000 418.400000
2884 12113 11323 1 109.50000 418.400000
2885 12113 11323 1 109.50000 418.400000
1937 12114 2886 1 109.50000 418.400000
1937 12114 2887 1 109.50000 418.400000
1937 12114 2888 1 109.50000 418.400000
2886 12114 2887 1 109.50000 418.400000
2886 12114 2888 1 109.50000 418.400000
2887 12114 2888 1 109.50000 418.400000
2889 12115 2890 1 109.50000 418.400000
2889 12115 2891 1 109.50000 418.400000
2889 12115 11157 1 109.50000 418.400000
2890 12115 2891 1 109.50000 418.400000
2890 12115 11157 1 109.50000 418.400000
2891 12115 11157 1 109.50000 418.400000
2892 12116 2893 1 109.50000 418.400000
2892 12116 2895 1 109.50000 418.400000
2892 12116 9517 1 109.50000 418.400000
2893 12116 2895 1 109.50000 418.400000
2893 12116 9517 1 109.50000 418.400000
2895 12116 9517 1 109.50000 418.400000
2896 12117 2897 1 109.50000 418.400000
2896 12117 2898 1 109.50000 418.400000
2896 12117 2899 1 109.50000 418.400000
2897 12117 2898 1 109.50000 418.400000
2897 12117 2899 1 109.50000 418.400000
2898 12117 2899 1 109.50000 418.400000
1810 12118 2900 1 109.50000 418.400000
1810 12118 2901 1 109.50000 418.400000
1810 12118 2902 1 109.50000 418.400000
2900 12118 2901 1 109.50000 418.400000
2900 12118 2902 1 109.50000 418.400000
2901 12118 2902 1 109.50000 418.400000
156 12119 2903 1 109.50000 418.400000
156 12119 2904 1 109.50000 418.400000
156 12119 2905 1 109.50000 418.400000
2903 12119 2904 1 109.50000 418.400000
2903 12119 2905 1 109.50000 418.400000
2904 12119 2905 1 109.50000 418.400000
580 12120 906 1 109.50000 418.400000
580 12120 2906 1 109.50000 418.400000
580 12120 2908 1 109.50000 418.400000
906 12120 2906 1 109.50000 418.400000
906 12120 2908 1 109.50000 418.400000
2906 12120 2908 1 109.50000 418.400000
334 12121 2909 1 109.50000 418.400000
334 12121 2910 1 109.50000 418.400000
334 12121 2911 1 109.50000 418.400000
2909 12121 2910 1 109.50000 418.400000
2909 12121 2911 1 109.50000 418.400000
2910 12121 2911 1 109.50000 418.400000
2770 12122 2912 1 109.50000 418.400000
2770 12122 2913 1 109.50000 418.400000
2770 12122 2914 1 109.50000 418.400000
2912 12122 2913 1 109.50000 418.400000
2912 12122 2914 1 109.50000 418.400000
2913 12122 2914 1 109.50000 418.400000
2915 12123 2916 1 109.50000 418.400000
2915 12123 2917 1 109.50000 418.400000
2915 12123 3432 1 109.50000 418.400000
2916 12123 2917 1 109.50000 418.400000
2916 12123 3432 1 109.50000 418.400000
2917 12123 3432 1 109.50000 418.400000
2834 12124 2918 1 109.50000 418.400000
2834 12124 2919 1 109.50000 418.400000
2834 12124 2920 1 109.50000 418.400000
2918 12124 2919 1 109.50000 418.400000
2918 12124 2920 1 109.50000 418.400000
2919 12124 2920 1 109.50000 418.400000
2506 12125 2921 1 109.50000 418.400000
2506 12125 2922 1 109.50000 418.400000
2506 12125 11180 1 109.50000 418.400000
2921 12125 2922 1 109.50000 418.400000
2921 12125 11180 1 109.50000 418.400000
2922 12125 11180 1 109.50000 418.400000
566 12126 1468 1 109.50000 418.400000
566 12126 1470 1 109.50000 418.400000
566 12126 2623 1 109.50000 418.400000
1468 12126 1470 1 109.50000 418.400000
1468 12126 2623 1 109.50000 418.400000
1470 12126 2623 1 109.50000 418.400000
2923 12127 2924 1 109.50000 418.400000
2923 12127 2925 1 109.50000 418.400000
2923 12127 2926 1 109.50000 418.400000
2924 12127 2925 1 109.50000 418.400000
2924 12127 2926 1 109.50000 418.400000
2925 12127 2926 1 109.50000 418.400000
2927 12128 2928 1 109.50000 418.400000
2927 12128 2929 1 109.50000 418.400000
2927 12128 2930 1 109.50000 418.400000
2928 12128 2929 1 109.50000 418.400000
2928 12128 2930 1 109.50000 418.400000
2929 12128 2930 1 109.50000 418.400000
2003 12129 2931 1 109.50000 418.400000
2003 12129 2932 1 109.50000 418.400000
2003 12129 2933 1 109.50000 418.400000
2931 12129 2932 1 109.50000 418.400000
2931 12129 2933 1 109.50000 418.400000
2932 12129 2933 1 109.50000 418.400000
876 12130 2934 1 109.50000 418.400000
876 12130 2935 1 109.50000 418.400000
876 12130 2936 1 109.50000 418.400000
2934 12130 2935 1 109.50000 418.400000
2934 12130 2936 1 109.50000 418.400000
2935 12130 2936 1 109.50000 418.400000
655 12131 2937 1 109.50000 418.400000
655 12131 2938 1 109.50000 418.400000
655 12131 2939 1 109.50000 418.400000
2937 12131 2938 1 109.50000 418.400000
2937 12131 2939 1 109.50000 418.400000
2938 12131 2939 1 109.50000 418.400000
2940 12132 2941 1 109.50000 418.400000
2940 12132 2942 1 109.50000 418.400000
2940 12132 6129 1 109.50000 418.400000
2941 12132 2942 1 109.50000 418.400000
2941 12132 6129 1 109.50000 418.400000
2942 12132 6129 1 109.50000 418.400000
2947 12133 2948 1 109.50000 418.400000
2947 12133 2949 1 109.50000 418.400000
2947 12133 2950 1 109.50000 418.400000
2948 12133 2949 1 109.50000 418.400000
2948 12133 2950 1 109.50000 418.400000
2949 12133 2950 1 109.50000 418.400000
2953 12134 7431 1 109.50000 418.400000
2953 12134 8330 1 109.50000 418.400000
2953 12134 11062 1 109.50000 418.400000
7431 12134 8330 1 109.50000 418.400000
7431 12134 11062 1 109.50000 418.400000
8330 12134 11062 1 109.50000 418.400000
2269 12135 2955 1 109.50000 418.400000
2269 12135 2956 1 109.50000 418.400000
2269 12135 2957 1 109.50000 418.400000
2955 12135 2956 1 109.50000 418.400000
2955 12135 2957 1 109.50000 418.400000
2956 12135 2957 1 109.50000 418.400000
2958 12136 2959 1 109.50000 418.400000
2958 12136 2960 1 109.50000 418.400000
2958 12136 2961 1 109.50000 418.400000
2959 12136 2960 1 109.50000 418.400000
2959 12136 2961 1 109.50000 418.400000
2960 12136 2961 1 109.50000 418.400000
2962 12137 2963 1 109.50000 418.400000
2962 12137 2964 1 109.50000 418.400000
2962 12137 2965 1 109.50000 418.400000
2963 12137 2964 1 109.50000 418.400000
2963 12137 2965 1 109.50000 418.400000
2964 12137 2965 1 109.50000 418.400000
2966 12138 2967 1 109.50000 418.400000
2966 12138 2968 1 109.50000 418.400000
2966 12138 2969 1 109.50000 418.400000
2967 12138 2968 1 109.50000 418.400000
2967 12138 2969 1 109.50000 418.400000
2968 12138 2969 1 109.50000 418.400000
2970 12139 2971 1 109.50000 418.400000
2970 12139 2973 1 109.50000 418.400000
2970 12139 4010 1 109.50000 418.400000
2971 12139 2973 1 109.50000 418.400000
2971 12139 4010 1 109.50000 418.400000
2973 12139 4010 1 109.50000 418.400000
2974 12140 2975 1 109.50000 418.400000
2974 12140 2976 1 109.50000 418.400000
2974 12140 2977 1 109.50000 418.400000
2975 12140 2976 1 109.50000 418.400000
2975 12140 2977 1 109.50000 418.400000
2976 12140 2977 1 109.50000 418.400000
2978 12141 2979 1 109.50000 418.400000
2978 12141 2980 1 109.50000 418.400000
2978 12141 2981 1 109.50000 418.400000
2979 12141 2980 1 109.50000 418.400000
2979 12141 2981 1 109.50000 418.400000
2980 12141 2981 1 109.50000 418.400000
2982 12142 2983 1 109.50000 418.400000
2982 12142 2984 1 109.50000 418.400000
2982 12142 2985 1 109.50000 418.400000
2983 12142 2984 1 109.50000 418.400000
2983 12142 2985 1 109.50000 418.400000
2984 12142 2985 1 109.50000 418.400000
2986 12143 2987 1 109.50000 418.400000
2986 12143 2988 1 109.50000 418.400000
2986 12143 11183 1 109.50000 418.400000
2987 12143 2988 1 109.50000 418.400000
2987 12143 11183 1 109.50000 418.400000
2988 12143 11183 1 109.50000 418.400000
1583 12144 2996 1 109.50000 418.400000
1583 12144 2997 1 109.50000 418.400000
1583 12144 11221 1 109.50000 418.400000
2996 12144 2997 1 109.50000 418.400000
2996 12144 11221 1 109.50000 418.400000
2997 12144 11221 1 109.50000 418.400000
2998 12145 2999 1 109.50000 418.400000
2998 12145 3000 1 109.50000 418.400000
2998 12145 3001 1 109.50000 418.400000
2999 12145 3000 1 109.50000 418.400000
2999 12145 3001 1 109.50000 418.400000
3000 12145 3001 1 109.50000 418.400000
902 12146 2488 1 109.50000 418.400000
902 12146 3002 1 109.50000 418.400000
902 12146 3003 1 109.50000 418.400000
2488 12146 3002 1 109.50000 418.400000
2488 12146 3003 1 109.50000 418.400000
3002 12146 3003 1 109.50000 418.400000
1373 12147 3004 1 109.50000 418.400000
1373 12147 3005 1 109.50000 418.400000
1373 12147 3006 1 109.50000 418.400000
3004 12147 3005 1 109.50000 418.400000
3004 12147 3006 1 109.50000 418.400000
3005 12147 3006 1 109.50000 418.400000
3007 12148 3009 1 109.50000 418.400000
3007 12148 3010 1 109.50000 418.400000
3007 12148 8894 1 109.50000 418.400000
3009 12148 3010 1 109.50000 418.400000
3009 12148 8894 1 109.50000 418.400000
3010 12148 8894 1 109.50000 418.400000
579 12149 3434 1 109.50000 418.400000
579 12149 5660 1 109.50000 418.400000
579 12149 11289 1 109.50000 418.400000
3434 12149 5660 1 109.50000 418.400000
3434 12149 11289 1 109.50000 418.400000
5660 12149 11289 1 109.50000 418.400000
3011 12150 3012 1 109.50000 418.400000
3011 12150 3013 1 109.50000 418.400000
3011 12150 3014 1 109.50000 418.400000
3012 12150 3013 1 109.50000 418.400000
3012 12150 3014 1 109.50000 418.400000
3013 12150 3014 1 109.50000 418.400000
2504 12151 3015 1 109.50000 418.400000
2504 12151 3016 1 109.50000 418.400000
2504 12151 3017 1 109.50000 418.400000
3015 12151 3016 1 109.50000 418.400000
3015 12151 3017 1 109.50000 418.400000
3016 12151 3017 1 109.50000 418.400000
3018 12152 3019 1 109.50000 418.400000
3018 12152 3020 1 109.50000 418.400000
3018 12152 3021 1 109.50000 418.400000
3019 12152 3020 1 109.50000 418.400000
3019 12152 3021 1 109.50000 418.400000
3020 12152 3021 1 109.50000 418.400000
2117 12153 3022 1 109.50000 418.400000
2117 12153 3023 1 109.50000 418.400000
2117 12153 3024 1 109.50000 418.400000
3022 12153 3023 1 109.50000 418.400000
3022 12153 3024 1 109.50000 418.400000
3023 12153 3024 1 109.50000 418.400000
3025 12154 3026 1 109.50000 418.400000
3025 12154 3027 1 109.50000 418.400000
3025 12154 3028 1 109.50000 418.400000
3026 12154 3027 1 109.50000 418.400000
3026 12154 3028 1 109.50000 418.400000
3027 12154 3028 1 109.50000 418.400000
3029 12155 3030 1 109.50000 418.400000
3029 12155 3031 1 109.50000 418.400000
3029 12155 3032 1 109.50000 418.400000
3030 12155 3031 1 109.50000 418.400000
3030 12155 3032 1 109.50000 418.400000
3031 12155 3032 1 109.50000 418.400000
3033 12156 3034 1 109.50000 418.400000
3033 12156 3035 1 109.50000 418.400000
3033 12156 11246 1 109.50000 418.400000
3034 12156 3035 1 109.50000 418.400000
3034 12156 11246 1 109.50000 418.400000
3035 12156 11246 1 109.50000 418.400000
2597 12157 3036 1 109.50000 418.400000
2597 12157 3037 1 109.50000 418.400000
2597 12157 3038 1 109.50000 418.400000
3036 12157 3037 1 109.50000 418.400000
3036 12157 3038 1 109.50000 418.400000
3037 12157 3038 1 109.50000 418.400000
3039 12158 3040 1 109.50000 418.400000
3039 12158 3041 1 109.50000 418.400000
3039 12158 10913 1 109.50000 418.400000
3040 12158 3041 1 109.50000 418.400000
3040 12158 10913 1 109.50000 418.400000
3041 12158 10913 1 109.50000 418.400000
2027 12159 3042 1 109.50000 418.400000
2027 12159 11186 1 109.50000 418.400000
2027 12159 11280 1 109.50000 418.400000
3042 12159 11186 1 109.50000 418.400000
3042 12159 11280 1 109.50000 418.400000
11186 12159 11280 1 109.50000 418.400000
3043 12160 3044 1 109.50000 418.400000
3043 12160 3045 1 109.50000 418.400000
3043 12160 5380 1 109.50000 418.400000
3044 12160 3045 1 109.50000 418.400000
3044 12160 5380 1 109.50000 418.400000
3045 12160 5380 1 109.50000 418.400000
3049 12161 3050 1 109.50000 418.400000
3049 12161 3051 1 109.50000 418.400000
3049 12161 3052 1 109.50000 418.400000
3050 12161 3051 1 109.50000 418.400000
3050 12161 3052 1 109.50000 418.400000
3051 12161 3052 1 109.50000 418.400000
303 12162 3053 1 109.50000 418.400000
303 12162 3054 1 109.50000 418.400000
303 12162 3055 1 109.50000 418.400000
3053 12162 3054 1 109.50000 418.400000
3053 12162 3055 1 109.50000 418.400000
3054 12162 3055 1 109.50000 418.400000
918 12163 1107 1 109.50000 418.400000
918 12163 1108 1 109.50000 418.400000
918 12163 1109 1 109.50000 418.400000
1107 12163 1108 1 109.50000 418.400000
1107 12163 1109 1 109.50000 418.400000
1108 12163 1109 1 109.50000 418.400000
3058 12164 3059 1 109.50000 418.400000
3058 12164 3060 1 109.50000 418.400000
3058 12164 8970 1 109.50000 418.400000
3059 12164 3060 1 109.50000 418.400000
3059 12164 8970 1 109.50000 418.400000
3060 12164 8970 1 109.50000 418.400000
637 12165 1730 1 109.50000 418.400000
637 12165 3061 1 109.50000 418.400000
637 12165 3062 1 109.50000 418.400000
1730 12165 3061 1 109.50000 418.400000
1730 12165 3062 1 109.50000 418.400000
3061 12165 3062 1 109.50000 418.400000
3063 12166 3064 1 109.50000 418.400000
3063 12166 3065 1 109.50000 418.400000
3063 12166 3066 1 109.50000 418.400000
3064 12166 3065 1 109.50000 418.400000
3064 12166 3066 1 109.50000 418.400000
3065 12166 3066 1 109.50000 418.400000
533 12167 3067 1 109.50000 418.400000
533 12167 3068 1 109.50000 418.400000
533 12167 3069 1 109.50000 418.400000
3067 12167 3068 1 109.50000 418.400000
3067 12167 3069 1 109.50000 418.400000
3068 12167 3069 1 109.50000 418.400000
3070 12168 3071 1 109.50000 418.400000
3070 12168 3072 1 109.50000 418.400000
3070 12168 3073 1 109.50000 418.400000
3071 12168 3072 1 109.50000 418.400000
3071 12168 3073 1 109.50000 418.400000
3072 12168 3073 1 109.50000 418.400000
1917 12169 3074 1 109.50000 418.400000
1917 12169 3075 1 109.50000 418.400000
1917 12169 3076 1 109.50000 418.400000
3074 12169 3075 1 109.50000 418.400000
3074 12169 3076 1 109.50000 418.400000
3075 12169 3076 1 109.50000 418.400000
2675 12170 3077 1 109.50000 418.400000
2675 12170 3078 1 109.50000 418.400000
2675 12170 3079 1 109.50000 418.400000
3077 12170 3078 1 109.50000 418.400000
3077 12170 3079 1 109.50000 418.400000
3078 12170 3079 1 109.50000 418.400000
1316 12171 2055 1 109.50000 418.400000
1316 12171 3080 1 109.50000 418.400000
1316 12171 3081 1 109.50000 418.400000
2055 12171 3080 1 109.50000 418.400000
2055 12171 3081 1 109.50000 418.400000
3080 12171 3081 1 109.50000 418.400000
1484 12172 2302 1 109.50000 418.400000
1484 12172 3082 1 109.50000 418.400000
1484 12172 3083 1 109.50000 418.400000
2302 12172 3082 1 109.50000 418.400000
2302 12172 3083 1 109.50000 418.400000
3082 12172 3083 1 109.50000 418.400000
2060 12173 3085 1 109.50000 418.400000
2060 12173 3086 1 109.50000 418.400000
2060 12173 5909 1 109.50000 418.400000
3085 12173 3086 1 109.50000 418.400000
3085 12173 5909 1 109.50000 418.400000
3086 12173 5909 1 109.50000 418.400000
1956 12174 3087 1 109.50000 418.400000
1956 12174 3088 1 109.50000 418.400000
1956 12174 3089 1 109.50000 418.400000
3087 12174 3088 1 109.50000 418.400000
3087 12174 3089 1 109.50000 418.400000
3088 12174 3089 1 109.50000 418.400000
3090 12175 3091 1 109.50000 418.400000
3090 12175 3092 1 109.50000 418.400000
3090 12175 3093 1 109.50000 418.400000
3091 12175 3092 1 109.50000 418.400000
3091 12175 3093 1 109.50000 418.400000
3092 12175 3093 1 109.50000 418.400000
1279 12176 3094 1 109.50000 418.400000
1279 12176 3095 1 109.50000 418.400000
1279 12176 3096 1 109.50000 418.400000
3094 12176 3095 1 109.50000 418.400000
3094 12176 3096 1 109.50000 418.400000
3095 12176 3096 1 109.50000 418.400000
277 12177 3097 1 109.50000 418.400000
277 12177 3098 1 109.50000 418.400000
277 12177 3099 1 109.50000 418.400000
3097 12177 3098 1 109.50000 418.400000
3097 12177 3099 1 109.50000 418.400000
3098 12177 3099 1 109.50000 418.400000
64 12178 3100 1 109.50000 418.400000
64 12178 3101 1 109.50000 418.400000
64 12178 9283 1 109.50000 418.400000
3100 12178 3101 1 109.50000 418.400000
3100 12178 9283 1 109.50000 418.400000
3101 12178 9283 1 109.50000 418.400000
2272 12179 2878 1 109.50000 418.400000
2272 12179 3102 1 109.50000 418.400000
2272 12179 3103 1 109.50000 418.400000
2878 12179 3102 1 109.50000 418.400000
2878 12179 3103 1 109.50000 418.400000
3102 12179 3103 1 109.50000 418.400000
1366 12180 3110 1 109.50000 418.400000
1366 12180 3111 1 109.50000 418.400000
1366 12180 3112 1 109.50000 418.400000
3110 12180 3111 1 109.50000 418.400000
3110 12180 3112 1 109.50000 418.400000
3111 12180 3112 1 109.50000 418.400000
3113 12181 3114 1 109.50000 418.400000
3113 12181 3115 1 109.50000 418.400000
3113 12181 3116 1 109.50000 418.400000
3114 12181 3115 1 109.50000 418.400000
3114 12181 3116 1 109.50000 418.400000
3115 12181 3116 1 109.50000 418.400000
2659 12182 2935 1 109.50000 418.400000
2659 12182 3117 1 109.50000 418.400000
2659 12182 3118 1 109.50000 418.400000
2935 12182 3117 1 109.50000 418.400000
2935 12182 3118 1 109.50000 418.400000
3117 12182 3118 1 109.50000 418.400000
3119 12183 3120 1 109.50000 418.400000
3119 12183 3121 1 109.50000 418.400000
3119 12183 11312 1 109.50000 418.400000
3120 12183 3121 1 109.50000 418.400000
3120 12183 11312 1 109.50000 418.400000
3121 12183 11312 1 109.50000 418.400000
3122 12184 3123 1 109.50000 418.400000
3122 12184 3124 1 109.50000 418.400000
3122 12184 3125 1 109.50000 418.400000
3123 12184 3124 1 109.50000 418.400000
3123 12184 3125 1 109.50000 418.400000
3124 12184 3125 1 109.50000 418.400000
3126 12185 3127 1 109.50000 418.400000
3126 12185 3128 1 109.50000 418.400000
3126 12185 3129 1 109.50000 418.400000
3127 12185 3128 1 109.50000 418.400000
3127 12185 3129 1 109.50000 418.400000
3128 12185 3129 1 109.50000 418.400000
1909 12186 3130 1 109.50000 418.400000
1909 12186 3131 1 109.50000 418.400000
1909 12186 3132 1 109.50000 418.400000
3130 12186 3131 1 109.50000 418.400000
3130 12186 3132 1 109.50000 418.400000
3131 12186 3132 1 109.50000 418.400000
3134 12187 3136 1 109.50000 418.400000
3134 12187 8505 1 109.50000 418.400000
3134 12187 8506 1 109.50000 418.400000
3136 12187 8505 1 109.50000 418.400000
3136 12187 8506 1 109.50000 418.400000
8505 12187 8506 1 109.50000 418.400000
900 12188 3137 1 109.50000 418.400000
900 12188 3138 1 109.50000 418.400000
900 12188 3139 1 109.50000 418.400000
3137 12188 3138 1 109.50000 418.400000
3137 12188 3139 1 109.50000 418.400000
3138 12188 3139 1 109.50000 418.400000
3140 12189 3141 1 109.50000 418.400000
3140 12189 3142 1 109.50000 418.400000
3140 12189 3143 1 109.50000 418.400000
3141 12189 3142 1 109.50000 418.400000
3141 12189 3143 1 109.50000 418.400000
3142 12189 3143 1 109.50000 418.400000
2294 12190 3144 1 109.50000 418.400000
2294 12190 3145 1 109.50000 418.400000
2294 12190 3146 1 109.50000 418.400000
3144 12190 3145 1 109.50000 418.400000
3144 12190 3146 1 109.50000 418.400000
3145 12190 3146 1 109.50000 418.400000
3150 12191 3151 1 109.50000 418.400000
3150 12191 3152 1 109.50000 418.400000
3150 12191 3153 1 109.50000 418.400000
3151 12191 3152 1 109.50000 418.400000
3151 12191 3153 1 109.50000 418.400000
3152 12191 3153 1 109.50000 418.400000
2396 12192 3154 1 109.50000 418.400000
2396 12192 3155 1 109.50000 418.400000
2396 12192 3156 1 109.50000 418.400000
3154 12192 3155 1 109.50000 418.400000
3154 12192 3156 1 109.50000 418.400000
3155 12192 3156 1 109.50000 418.400000
3157 12193 3158 1 109.50000 418.400000
3157 12193 3159 1 109.50000 418.400000
3157 12193 3160 1 109.50000 418.400000
3158 12193 3159 1 109.50000 418.400000
3158 12193 3160 1 109.50000 418.400000
3159 12193 3160 1 109.50000 418.400000
2404 12194 3162 1 109.50000 418.400000
2404 12194 3163 1 109.50000 418.400000
2404 12194 3164 1 109.50000 418.400000
3162 12194 3163 1 109.50000 418.400000
3162 12194 3164 1 109.50000 418.400000
3163 12194 3164 1 109.50000 418.400000
3165 12195 3166 1 109.50000 418.400000
3165 12195 3167 1 109.50000 418.400000
3165 12195 3168 1 109.50000 418.400000
3166 12195 3167 1 109.50000 418.400000
3166 12195 3168 1 109.50000 418.400000
3167 12195 3168 1 109.50000 418.400000
3169 12196 3170 1 109.50000 418.400000
3169 12196 3171 1 109.50000 418.400000
3169 12196 3172 1 109.50000 418.400000
3170 12196 3171 1 109.50000 418.400000
3170 12196 3172 1 109.50000 418.400000
3171 12196 3172 1 109.50000 418.400000
3173 12197 3174 1 109.50000 418.400000
3173 12197 3175 1 109.50000 418.400000
3173 12197 3176 1 109.50000 418.400000
3174 12197 3175 1 109.50000 418.400000
3174 12197 3176 1 109.50000 418.400000
3175 12197 3176 1 109.50000 418.400000
3177 12198 3178 1 109.50000 418.400000
3177 12198 3179 1 109.50000 418.400000
3177 12198 3180 1 109.50000 418.400000
3178 12198 3179 1 109.50000 418.400000
3178 12198 3180 1 109.50000 418.400000
3179 12198 3180 1 109.50000 418.400000
52 12199 3181 1 109.50000 418.400000
52 12199 3182 1 109.50000 418.400000
52 12199 3183 1 109.50000 418.400000
3181 12199 3182 1 109.50000 418.400000
3181 12199 3183 1 109.50000 418.400000
3182 12199 3183 1 109.50000 418.400000
593 12200 3185 1 109.50000 418.400000
593 12200 3186 1 109.50000 418.400000
593 12200 3187 1 109.50000 418.400000
3185 12200 3186 1 109.50000 418.400000
3185 12200 3187 1 109.50000 418.400000
3186 12200 3187 1 109.50000 418.400000
3190 12201 3191 1 109.50000 418.400000
3190 12201 3192 1 109.50000 418.400000
3190 12201 3193 1 109.50000 418.400000
3191 12201 3192 1 109.50000 418.400000
3191 12201 3193 1 109.50000 418.400000
3192 12201 3193 1 109.50000 418.400000
1028 12202 3194 1 109.50000 418.400000
1028 12202 3195 1 109.50000 418.400000
1028 12202 3197 1 109.50000 418.400000
3194 12202 3195 1 109.50000 418.400000
3194 12202 3197 1 109.50000 418.400000
3195 12202 3197 1 109.50000 418.400000
3198 12203 3199 1 109.50000 418.400000
3198 12203 3200 1 109.50000 418.400000
3198 12203 3201 1 109.50000 418.400000
3199 12203 3200 1 109.50000 418.400000
3199 12203 3201 1 109.50000 418.400000
3200 12203 3201 1 109.50000 418.400000
3202 12204 3203 1 109.50000 418.400000
3202 12204 3204 1 109.50000 418.400000
3202 12204 3205 1 109.50000 418.400000
3203 12204 3204 1 109.50000 418.400000
3203 12204 3205 1 109.50000 418.400000
3204 12204 3205 1 109.50000 418.400000
2022 12205 3206 1 109.50000 418.400000
2022 12205 3207 1 109.50000 418.400000
2022 12205 3208 1 109.50000 418.400000
3206 12205 3207 1 109.50000 418.400000
3206 12205 3208 1 109.50000 418.400000
3207 12205 3208 1 109.50000 418.400000
3209 12206 3210 1 109.50000 418.400000
3209 12206 3211 1 109.50000 418.400000
3209 12206 3212 1 109.50000 418.400000
3210 12206 3211 1 109.50000 418.400000
3210 12206 3212 1 109.50000 418.400000
3211 12206 3212 1 109.50000 418.400000
2880 12207 3213 1 109.50000 418.400000
2880 12207 3215 1 109.50000 418.400000
2880 12207 3450 1 109.50000 418.400000
3213 12207 3215 1 109.50000 418.400000
3213 12207 3450 1 109.50000 418.400000
3215 12207 3450 1 109.50000 418.400000
1602 12208 3216 1 109.50000 418.400000
1602 12208 3217 1 109.50000 418.400000
1602 12208 3218 1 109.50000 418.400000
3216 12208 3217 1 109.50000 418.400000
3216 12208 3218 1 109.50000 418.400000
3217 12208 3218 1 109.50000 418.400000
3219 12209 3220 1 109.50000 418.400000
3219 12209 3221 1 109.50000 418.400000
3219 12209 3222 1 109.50000 418.400000
3220 12209 3221 1 109.50000 418.400000
3220 12209 3222 1 109.50000 418.400000
3221 12209 3222 1 109.50000 418.400000
3225 12210 3226 1 109.50000 418.400000
3225 12210 3227 1 109.50000 418.400000
3225 12210 3228 1 109.50000 418.400000
3226 12210 3227 1 109.50000 418.400000
3226 12210 3228 1 109.50000 418.400000
3227 12210 3228 1 109.50000 418.400000
3229 12211 3230 1 109.50000 418.400000
3229 12211 3231 1 109.50000 418.400000
3229 12211 3232 1 109.50000 418.400000
3230 12211 3231 1 109.50000 418.400000
3230 12211 3232 1 109.50000 418.400000
3231 12211 3232 1 109.50000 418.400000
1357 12212 1359 1 109.50000 418.400000
1357 12212 1360 1 109.50000 418.400000
1357 12212 3233 1 109.50000 418.400000
1359 12212 1360 1 109.50000 418.400000
1359 12212 3233 1 109.50000 418.400000
1360 12212 3233 1 109.50000 418.400000
3236 12213 3237 1 109.50000 418.400000
3236 12213 3238 1 109.50000 418.400000
3236 12213 3239 1 109.50000 418.400000
3237 12213 3238 1 109.50000 418.400000
3237 12213 3239 1 109.50000 418.400000
3238 12213 3239 1 109.50000 418.400000
3240 12214 3241 1 109.50000 418.400000
3240 12214 3242 1 109.50000 418.400000
3240 12214 8115 1 109.50000 418.400000
3241 12214 3242 1 109.50000 418.400000
3241 12214 8115 1 109.50000 418.400000
3242 12214 8115 1 109.50000 418.400000
3093 12215 3243 1 109.50000 418.400000
3093 12215 3244 1 109.50000 418.400000
3093 12215 3245 1 109.50000 418.400000
3243 12215 3244 1 109.50000 418.400000
3243 12215 3245 1 109.50000 418.400000
3244 12215 3245 1 109.50000 418.400000
3246 12216 3247 1 109.50000 418.400000
3246 12216 3248 1 109.50000 418.400000
3246 12216 3249 1 109.50000 418.400000
3247 12216 3248 1 109.50000 418.400000
3247 12216 3249 1 109.50000 418.400000
3248 12216 3249 1 109.50000 418.400000
1492 12217 3250 1 109.50000 418.400000
1492 12217 3251 1 109.50000 418.400000
1492 12217 3252 1 109.50000 418.400000
3250 12217 3251 1 109.50000 418.400000
3250 12217 3252 1 109.50000 418.400000
3251 12217 3252 1 109.50000 418.400000
139 12218 3253 1 109.50000 418.400000
139 12218 3254 1 109.50000 418.400000
139 12218 3255 1 109.50000 418.400000
3253 12218 3254 1 109.50000 418.400000
3253 12218 3255 1 109.50000 418.400000
3254 12218 3255 1 109.50000 418.400000
3256 12219 3257 1 109.50000 418.400000
3256 12219 3258 1 109.50000 418.400000
3256 12219 3259 1 109.50000 418.400000
3257 12219 3258 1 109.50000 418.400000
3257 12219 3259 1 109.50000 418.400000
3258 12219 3259 1 109.50000 418.400000
3260 12220 3261 1 109.50000 418.400000
3260 12220 3262 1 109.50000 418.400000
3260 12220 3263 1 109.50000 418.400000
3261 12220 3262 1 109.50000 418.400000
3261 12220 3263 1 109.50000 418.400000
3262 12220 3263 1 109.50000 418.400000
2707 12221 3217 1 109.50000 418.400000
2707 12221 3222 1 109.50000 418.400000
2707 12221 3264 1 109.50000 418.400000
3217 12221 3222 1 109.50000 418.400000
3217 12221 3264 1 109.50000 418.400000
3222 12221 3264 1 109.50000 418.400000
3265 12222 3266 1 109.50000 418.400000
3265 12222 3267 1 109.50000 418.400000
3265 12222 3268 1 109.50000 418.400000
3266 12222 3267 1 109.50000 418.400000
3266 12222 3268 1 109.50000 418.400000
3267 12222 3268 1 109.50000 418.400000
3269 12223 3270 1 109.50000 418.400000
3269 12223 3271 1 109.50000 418.400000
3269 12223 3272 1 109.50000 418.400000
3270 12223 3271 1 109.50000 418.400000
3270 12223 3272 1 109.50000 418.400000
3271 12223 3272 1 109.50000 418.400000
3273 12224 3274 1 109.50000 418.400000
3273 12224 3275 1 109.50000 418.400000
3273 12224 3276 1 109.50000 418.400000
3274 12224 3275 1 109.50000 418.400000
3274 12224 3276 1 109.50000 418.400000
3275 12224 3276 1 109.50000 418.400000
983 12225 2334 1 109.50000 418.400000
983 12225 3277 1 109.50000 418.400000
983 12225 3278 1 109.50000 418.400000
2334 12225 3277 1 109.50000 418.400000
2334 12225 3278 1 109.50000 418.400000
3277 12225 3278 1 109.50000 418.400000
1301 12226 3279 1 109.50000 418.400000
1301 12226 3280 1 109.50000 418.400000
1301 12226 3281 1 109.50000 418.400000
3279 12226 3280 1 109.50000 418.400000
3279 12226 3281 1 109.50000 418.400000
3280 12226 3281 1 109.50000 418.400000
146 12227 3282 1 109.50000 418.400000
146 12227 3283 1 109.50000 418.400000
146 12227 11208 1 109.50000 418.400000
3282 12227 3283 1 109.50000 418.400000
3282 12227 11208 1 109.50000 418.400000
3283 12227 11208 1 109.50000 418.400000
1671 12228 1764 1 109.50000 418.400000
1671 12228 3286 1 109.50000 418.400000
1671 12228 3287 1 109.50000 418.400000
1764 12228 3286 1 109.50000 418.400000
1764 12228 3287 1 109.50000 418.400000
3286 12228 3287 1 109.50000 418.400000
1409 12229 3288 1 109.50000 418.400000
1409 12229 3289 1 109.50000 418.400000
1409 12229 3290 1 109.50000 418.400000
3288 12229 3289 1 109.50000 418.400000
3288 12229 3290 1 109.50000 418.400000
3289 12229 3290 1 109.50000 418.400000
3292 12230 3293 1 109.50000 418.400000
3292 12230 3294 1 109.50000 418.400000
3292 12230 5550 1 109.50000 418.400000
3293 12230 3294 1 109.50000 418.400000
3293 12230 5550 1 109.50000 418.400000
3294 12230 5550 1 109.50000 418.400000
3167 12231 3295 1 109.50000 418.400000
3167 12231 3296 1 109.50000 418.400000
3167 12231 3297 1 109.50000 418.400000
3295 12231 3296 1 109.50000 418.400000
3295 12231 3297 1 109.50000 418.400000
3296 12231 3297 1 109.50000 418.400000
3299 12232 3300 1 109.50000 418.400000
3299 12232 3301 1 109.50000 418.400000
3299 12232 6492 1 109.50000 418.400000
3300 12232 3301 1 109.50000 418.400000
3300 12232 6492 1 109.50000 418.400000
3301 12232 6492 1 109.50000 418.400000
3305 12233 3306 1 109.50000 418.400000
3305 12233 3307 1 109.50000 418.400000
3305 12233 3308 1 109.50000 418.400000
3306 12233 3307 1 109.50000 418.400000
3306 12233 3308 1 109.50000 418.400000
3307 12233 3308 1 109.50000 418.400000
3309 12234 3310 1 109.50000 418.400000
3309 12234 3311 1 109.50000 418.400000
3309 12234 3312 1 109.50000 418.400000
3310 12234 3311 1 109.50000 418.400000
3310 12234 3312 1 109.50000 418.400000
3311 12234 3312 1 109.50000 418.400000
3313 12235 3314 1 109.50000 418.400000
3313 12235 3315 1 109.50000 418.400000
3313 12235 3316 1 109.50000 418.400000
3314 12235 3315 1 109.50000 418.400000
3314 12235 3316 1 109.50000 418.400000
3315 12235 3316 1 109.50000 418.400000
333 12236 3317 1 109.50000 418.400000
333 12236 3318 1 109.50000 418.400000
333 12236 3319 1 109.50000 418.400000
3317 12236 3318 1 109.50000 418.400000
3317 12236 3319 1 109.50000 418.400000
3318 12236 3319 1 109.50000 418.400000
3152 12237 3320 1 109.50000 418.400000
3152 12237 3321 1 109.50000 418.400000
3152 12237 3322 1 109.50000 418.400000
3320 12237 3321 1 109.50000 418.400000
3320 12237 3322 1 109.50000 418.400000
3321 12237 3322 1 109.50000 418.400000
291 12238 972 1 109.50000 418.400000
291 12238 3323 1 109.50000 418.400000
291 12238 3324 1 109.50000 418.400000
972 12238 3323 1 109.50000 418.400000
972 12238 3324 1 109.50000 418.400000
3323 12238 3324 1 109.50000 418.400000
3325 12239 3326 1 109.50000 418.400000
3325 12239 3327 1 109.50000 418.400000
3325 12239 9134 1 109.50000 418.400000
3326 12239 3327 1 109.50000 418.400000
3326 12239 9134 1 109.50000 418.400000
3327 12239 9134 1 109.50000 418.400000
3329 12240 3330 1 109.50000 418.400000
3329 12240 3331 1 109.50000 418.400000
3329 12240 3332 1 109.50000 418.400000
3330 12240 3331 1 109.50000 418.400000
3330 12240 3332 1 109.50000 418.400000
3331 12240 3332 1 109.50000 418.400000
1980 12241 3336 1 109.50000 418.400000
1980 12241 3337 1 109.50000 418.400000
1980 12241 11143 1 109.50000 418.400000
3336 12241 3337 1 109.50000 418.400000
3336 12241 11143 1 109.50000 418.400000
3337 12241 11143 1 109.50000 418.400000
801 12242 3338 1 109.50000 418.400000
801 12242 3339 1 109.50000 418.400000
801 12242 11303 1 109.50000 418.400000
3338 12242 3339 1 109.50000 418.400000
3338 12242 11303 1 109.50000 418.400000
3339 12242 11303 1 109.50000 418.400000
3340 12243 3341 1 109.50000 418.400000
3340 12243 3342 1 109.50000 418.400000
3340 12243 3343 1 109.50000 418.400000
3341 12243 3342 1 109.50000 418.400000
3341 12243 3343 1 109.50000 418.400000
3342 12243 3343 1 109.50000 418.400000
3344 12244 3345 1 109.50000 418.400000
3344 12244 3346 1 109.50000 418.400000
3344 12244 3347 1 109.50000 418.400000
3345 12244 3346 1 109.50000 418.400000
3345 12244 3347 1 109.50000 418.400000
3346 12244 3347 1 109.50000 418.400000
1502 12245 3348 1 109.50000 418.400000
1502 12245 3349 1 109.50000 418.400000
1502 12245 3350 1 109.50000 418.400000
3348 12245 3349 1 109.50000 418.400000
3348 12245 3350 1 109.50000 418.400000
3349 12245 3350 1 109.50000 418.400000
2919 12246 3354 1 109.50000 418.400000
2919 12246 3355 1 109.50000 418.400000
2919 12246 3356 1 109.50000 418.400000
3354 12246 3355 1 109.50000 418.400000
3354 12246 3356 1 109.50000 418.400000
3355 12246 3356 1 109.50000 418.400000
3358 12247 3359 1 109.50000 418.400000
3358 12247 3360 1 109.50000 418.400000
3358 12247 3739 1 109.50000 418.400000
3359 12247 3360 1 109.50000 418.400000
3359 12247 3739 1 109.50000 418.400000
3360 12247 3739 1 109.50000 418.400000
3038 12248 3361 1 109.50000 418.400000
3038 12248 3362 1 109.50000 418.400000
3038 12248 3363 1 109.50000 418.400000
3361 12248 3362 1 109.50000 418.400000
3361 12248 3363 1 109.50000 418.400000
3362 12248 3363 1 109.50000 418.400000
1406 12249 3364 1 109.50000 418.400000
1406 12249 3365 1 109.50000 418.400000
1406 12249 3367 1 109.50000 418.400000
3364 12249 3365 1 109.50000 418.400000
3364 12249 3367 1 109.50000 418.400000
3365 12249 3367 1 109.50000 418.400000
1574 12250 3368 1 109.50000 418.400000
1574 12250 3369 1 109.50000 418.400000
1574 12250 3370 1 109.50000 418.400000
3368 12250 3369 1 109.50000 418.400000
3368 12250 3370 1 109.50000 418.400000
3369 12250 3370 1 109.50000 418.400000
3372 12251 3373 1 109.50000 418.400000
3372 12251 3374 1 109.50000 418.400000
3372 12251 3375 1 109.50000 418.400000
3373 12251 3374 1 109.50000 418.400000
3373 12251 3375 1 109.50000 418.400000
3374 12251 3375 1 109.50000 418.400000
3381 12252 3382 1 109.50000 418.400000
3381 12252 3383 1 109.50000 418.400000
3381 12252 3384 1 109.50000 418.400000
3382 12252 3383 1 109.50000 418.400000
3382 12252 3384 1 109.50000 418.400000
3383 12252 3384 1 109.50000 418.400000
3388 12253 3389 1 109.50000 418.400000
3388 12253 3390 1 109.50000 418.400000
3388 12253 3391 1 109.50000 418.400000
3389 12253 3390 1 109.50000 418.400000
3389 12253 3391 1 109.50000 418.400000
3390 12253 3391 1 109.50000 418.400000
3392 12254 3393 1 109.50000 418.400000
3392 12254 3394 1 109.50000 418.400000
3392 12254 3395 1 109.50000 418.400000
3393 12254 3394 1 109.50000 418.400000
3393 12254 3395 1 109.50000 418.400000
3394 12254 3395 1 109.50000 418.400000
513 12255 3396 1 109.50000 418.400000
513 12255 3397 1 109.50000 418.400000
513 12255 3398 1 109.50000 418.400000
3396 12255 3397 1 109.50000 418.400000
3396 12255 3398 1 109.50000 418.400000
3397 12255 3398 1 109.50000 418.400000
588 12256 3399 1 109.50000 418.400000
588 12256 3400 1 109.50000 418.400000
588 12256 3401 1 109.50000 418.400000
3399 12256 3400 1 109.50000 418.400000
3399 12256 3401 1 109.50000 418.400000
3400 12256 3401 1 109.50000 418.400000
3402 12257 3403 1 109.50000 418.400000
3402 12257 3404 1 109.50000 418.400000
3402 12257 3405 1 109.50000 418.400000
3403 12257 3404 1 109.50000 418.400000
3403 12257 3405 1 109.50000 418.400000
3404 12257 3405 1 109.50000 418.400000
26 12258 2286 1 109.50000 418.400000
26 12258 3213 1 109.50000 418.400000
26 12258 3406 1 109.50000 418.400000
2286 12258 3213 1 109.50000 418.400000
2286 12258 3406 1 109.50000 418.400000
3213 12258 3406 1 109.50000 418.400000
524 12259 3408 1 109.50000 418.400000
524 12259 3409 1 109.50000 418.400000
524 12259 4419 1 109.50000 418.400000
3408 12259 3409 1 109.50000 418.400000
3408 12259 4419 1 109.50000 418.400000
3409 12259 4419 1 109.50000 418.400000
3410 12260 3411 1 109.50000 418.400000
3410 12260 3412 1 109.50000 418.400000
3410 12260 3413 1 109.50000 418.400000
3411 12260 3412 1 109.50000 418.400000
3411 12260 3413 1 109.50000 418.400000
3412 12260 3413 1 109.50000 418.400000
1284 12261 3414 1 109.50000 418.400000
1284 12261 3416 1 109.50000 418.400000
1284 12261 5927 1 109.50000 418.400000
3414 12261 3416 1 109.50000 418.400000
3414 12261 5927 1 109.50000 418.400000
3416 12261 5927 1 109.50000 418.400000
3420 12262 3421 1 109.50000 418.400000
3420 12262 3422 1 109.50000 418.400000
3420 12262 3423 1 109.50000 418.400000
3421 12262 3422 1 109.50000 418.400000
3421 12262 3423 1 109.50000 418.400000
3422 12262 3423 1 109.50000 418.400000
11 12263 3424 1 109.50000 418.400000
11 12263 3425 1 109.50000 418.400000
11 12263 11206 1 109.50000 418.400000
3424 12263 3425 1 109.50000 418.400000
3424 12263 11206 1 109.50000 418.400000
3425 12263 11206 1 109.50000 418.400000
3426 12264 3427 1 109.50000 418.400000
3426 12264 3428 1 109.50000 418.400000
3426 12264 3429 1 109.50000 418.400000
3427 12264 3428 1 109.50000 418.400000
3427 12264 3429 1 109.50000 418.400000
3428 12264 3429 1 109.50000 418.400000
3023 12265 3132 1 109.50000 418.400000
3023 12265 3432 1 109.50000 418.400000
3023 12265 3433 1 109.50000 418.400000
3132 12265 3432 1 109.50000 418.400000
3132 12265 3433 1 109.50000 418.400000
3432 12265 3433 1 109.50000 418.400000
3435 12266 3436 1 109.50000 418.400000
3435 12266 3437 1 109.50000 418.400000
3435 12266 3438 1 109.50000 418.400000
3436 12266 3437 1 109.50000 418.400000
3436 12266 3438 1 109.50000 418.400000
3437 12266 3438 1 109.50000 418.400000
3439 12267 3440 1 109.50000 418.400000
3439 12267 3441 1 109.50000 418.400000
3439 12267 3442 1 109.50000 418.400000
3440 12267 3441 1 109.50000 418.400000
3440 12267 3442 1 109.50000 418.400000
3441 12267 3442 1 109.50000 418.400000
2513 12268 2832 1 109.50000 418.400000
2513 12268 3374 1 109.50000 418.400000
2513 12268 3443 1 109.50000 418.400000
2832 12268 3374 1 109.50000 418.400000
2832 12268 3443 1 109.50000 418.400000
3374 12268 3443 1 109.50000 418.400000
3444 12269 3445 1 109.50000 418.400000
3444 12269 3446 1 109.50000 418.400000
3444 12269 3447 1 109.50000 418.400000
3445 12269 3446 1 109.50000 418.400000
3445 12269 3447 1 109.50000 418.400000
3446 12269 3447 1 109.50000 418.400000
3448 12270 3449 1 109.50000 418.400000
3448 12270 3450 1 109.50000 418.400000
3448 12270 3451 1 109.50000 418.400000
3449 12270 3450 1 109.50000 418.400000
3449 12270 3451 1 109.50000 418.400000
3450 12270 3451 1 109.50000 418.400000
56 12271 2671 1 109.50000 418.400000
56 12271 3452 1 109.50000 418.400000
56 12271 3453 1 109.50000 418.400000
2671 12271 3452 1 109.50000 418.400000
2671 12271 3453 1 109.50000 418.400000
3452 12271 3453 1 109.50000 418.400000
1571 12272 3454 1 109.50000 418.400000
1571 12272 3455 1 109.50000 418.400000
1571 12272 3456 1 109.50000 418.400000
3454 12272 3455 1 109.50000 418.400000
3454 12272 3456 1 109.50000 418.400000
3455 12272 3456 1 109.50000 418.400000
1439 12273 1472 1 109.50000 418.400000
1439 12273 3457 1 109.50000 418.400000
1439 12273 3459 1 109.50000 418.400000
1472 12273 3457 1 109.50000 418.400000
1472 12273 3459 1 109.50000 418.400000
3457 12273 3459 1 109.50000 418.400000
3460 12274 3461 1 109.50000 418.400000
3460 12274 3462 1 109.50000 418.400000
3460 12274 3463 1 109.50000 418.400000
3461 12274 3462 1 109.50000 418.400000
3461 12274 3463 1 109.50000 418.400000
3462 12274 3463 1 109.50000 418.400000
3464 12275 3465 1 109.50000 418.400000
3464 12275 3466 1 109.50000 418.400000
3464 12275 3467 1 109.50000 418.400000
3465 12275 3466 1 109.50000 418.400000
3465 12275 3467 1 109.50000 418.400000
3466 12275 3467 1 109.50000 418.400000
2460 12276 3468 1 109.50000 418.400000
2460 12276 3469 1 109.50000 418.400000
2460 12276 3470 1 109.50000 418.400000
3468 12276 3469 1 109.50000 418.400000
3468 12276 3470 1 109.50000 418.400000
3469 12276 3470 1 109.50000 418.400000
3471 12277 3472 1 109.50000 418.400000
3471 12277 3473 1 109.50000 418.400000
3471 12277 3474 1 109.50000 418.400000
3472 12277 3473 1 109.50000 418.400000
3472 12277 3474 1 109.50000 418.400000
3473 12277 3474 1 109.50000 418.400000
2365 12278 3434 1 109.50000 418.400000
2365 12278 3475 1 109.50000 418.400000
2365 12278 3476 1 109.50000 418.400000
3434 12278 3475 1 109.50000 418.400000
3434 12278 3476 1 109.50000 418.400000
3475 12278 3476 1 109.50000 418.400000
3480 12279 3481 1 109.50000 418.400000
3480 12279 3482 1 109.50000 418.400000
3480 12279 3483 1 109.50000 418.400000
3481 12279 3482 1 109.50000 418.400000
3481 12279 3483 1 109.50000 418.400000
3482 12279 3483 1 109.50000 418.400000
784 12280 2738 1 109.50000 418.400000
784 12280 3484 1 109.50000 418.400000
784 12280 3485 1 109.50000 418.400000
2738 12280 3484 1 109.50000 418.400000
2738 12280 3485 1 109.50000 418.400000
3484 12280 3485 1 109.50000 418.400000
3486 12281 3487 1 109.50000 418.400000
3486 12281 3488 1 109.50000 418.400000
3486 12281 11329 1 109.50000 418.400000
3487 12281 3488 1 109.50000 418.400000
3487 12281 11329 1 109.50000 418.400000
3488 12281 11329 1 109.50000 418.400000
729 12282 3489 1 109.50000 418.400000
729 12282 3490 1 109.50000 418.400000
729 12282 3491 1 109.50000 418.400000
3489 12282 3490 1 109.50000 418.400000
3489 12282 3491 1 109.50000 418.400000
3490 12282 3491 1 109.50000 418.400000
3495 12283 3496 1 109.50000 418.400000
3495 12283 3497 1 109.50000 418.400000
3495 12283 3498 1 109.50000 418.400000
3496 12283 3497 1 109.50000 418.400000
3496 12283 3498 1 109.50000 418.400000
3497 12283 3498 1 109.50000 418.400000
3499 12284 3500 1 109.50000 418.400000
3499 12284 3501 1 109.50000 418.400000
3499 12284 3502 1 109.50000 418.400000
3500 12284 3501 1 109.50000 418.400000
3500 12284 3502 1 109.50000 418.400000
3501 12284 3502 1 109.50000 418.400000
1565 12285 3503 1 109.50000 418.400000
1565 12285 3504 1 109.50000 418.400000
1565 12285 3505 1 109.50000 418.400000
3503 12285 3504 1 109.50000 418.400000
3503 12285 3505 1 109.50000 418.400000
3504 12285 3505 1 109.50000 418.400000
3506 12286 3507 1 109.50000 418.400000
3506 12286 3508 1 109.50000 418.400000
3506 12286 3509 1 109.50000 418.400000
3507 12286 3508 1 109.50000 418.400000
3507 12286 3509 1 109.50000 418.400000
3508 12286 3509 1 109.50000 418.400000
3510 12287 3511 1 109.50000 418.400000
3510 12287 3512 1 109.50000 418.400000
3510 12287 3513 1 109.50000 418.400000
3511 12287 3512 1 109.50000 418.400000
3511 12287 3513 1 109.50000 418.400000
3512 12287 3513 1 109.50000 418.400000
3214 12288 3215 1 109.50000 418.400000
3214 12288 3514 1 109.50000 418.400000
3214 12288 3515 1 109.50000 418.400000
3215 12288 3514 1 109.50000 418.400000
3215 12288 3515 1 109.50000 418.400000
3514 12288 3515 1 109.50000 418.400000
267 12289 3516 1 109.50000 418.400000
267 12289 3517 1 109.50000 418.400000
267 12289 9304 1 109.50000 418.400000
3516 12289 3517 1 109.50000 418.400000
3516 12289 9304 1 109.50000 418.400000
3517 12289 9304 1 109.50000 418.400000
903 12290 3518 1 109.50000 418.400000
903 12290 3519 1 109.50000 418.400000
903 12290 3520 1 109.50000 418.400000
3518 12290 3519 1 109.50000 418.400000
3518 12290 3520 1 109.50000 418.400000
3519 12290 3520 1 109.50000 418.400000
3521 12291 3522 1 109.50000 418.400000
3521 12291 3523 1 109.50000 418.400000
3521 12291 3524 1 109.50000 418.400000
3522 12291 3523 1 109.50000 418.400000
3522 12291 3524 1 109.50000 418.400000
3523 12291 3524 1 109.50000 418.400000
219 12292 3528 1 109.50000 418.400000
219 12292 3529 1 109.50000 418.400000
219 12292 3530 1 109.50000 418.400000
3528 12292 3529 1 109.50000 418.400000
3528 12292 3530 1 109.50000 418.400000
3529 12292 3530 1 109.50000 418.400000
3531 12293 3532 1 109.50000 418.400000
3531 12293 3533 1 109.50000 418.400000
3531 12293 3534 1 109.50000 418.400000
3532 12293 3533 1 109.50000 418.400000
3532 12293 3534 1 109.50000 418.400000
3533 12293 3534 1 109.50000 418.400000
720 12294 3535 1 109.50000 418.400000
720 12294 3536 1 109.50000 418.400000
720 12294 3537 1 109.50000 418.400000
3535 12294 3536 1 109.50000 418.400000
3535 12294 3537 1 109.50000 418.400000
3536 12294 3537 1 109.50000 418.400000
3538 12295 3539 1 109.50000 418.400000
3538 12295 3540 1 109.50000 418.400000
3538 12295 3541 1 109.50000 418.400000
3539 12295 3540 1 109.50000 418.400000
3539 12295 3541 1 109.50000 418.400000
3540 12295 3541 1 109.50000 418.400000
3542 12296 3543 1 109.50000 418.400000
3542 12296 3544 1 109.50000 418.400000
3542 12296 3545 1 109.50000 418.400000
3543 12296 3544 1 109.50000 418.400000
3543 12296 3545 1 109.50000 418.400000
3544 12296 3545 1 109.50000 418.400000
1743 12297 3546 1 109.50000 418.400000
1743 12297 3547 1 109.50000 418.400000
1743 12297 3548 1 109.50000 418.400000
3546 12297 3547 1 109.50000 418.400000
3546 12297 3548 1 109.50000 418.400000
3547 12297 3548 1 109.50000 418.400000
3549 12298 3550 1 109.50000 418.400000
3549 12298 3551 1 109.50000 418.400000
3549 12298 3552 1 109.50000 418.400000
3550 12298 3551 1 109.50000 418.400000
3550 12298 3552 1 109.50000 418.400000
3551 12298 3552 1 109.50000 418.400000
1886 12299 2850 1 109.50000 418.400000
1886 12299 3553 1 109.50000 418.400000
1886 12299 3554 1 109.50000 418.400000
2850 12299 3553 1 109.50000 418.400000
2850 12299 3554 1 109.50000 418.400000
3553 12299 3554 1 109.50000 418.400000
3555 12300 3556 1 109.50000 418.400000
3555 12300 3557 1 109.50000 418.400000
3555 12300 3558 1 109.50000 418.400000
3556 12300 3557 1 109.50000 418.400000
3556 12300 3558 1 109.50000 418.400000
3557 12300 3558 1 109.50000 418.400000
3563 12301 3564 1 109.50000 418.400000
3563 12301 6283 1 109.50000 418.400000
3563 12301 10332 1 109.50000 418.400000
3564 12301 6283 1 109.50000 418.400000
3564 12301 10332 1 109.50000 418.400000
6283 12301 10332 1 109.50000 418.400000
3571 12302 3572 1 109.50000 418.400000
3571 12302 3573 1 109.50000 418.400000
3571 12302 3574 1 109.50000 418.400000
3572 12302 3573 1 109.50000 418.400000
3572 12302 3574 1 109.50000 418.400000
3573 12302 3574 1 109.50000 418.400000
745 12303 3455 1 109.50000 418.400000
745 12303 3575 1 109.50000 418.400000
745 12303 3576 1 109.50000 418.400000
3455 12303 3575 1 109.50000 418.400000
3455 12303 3576 1 109.50000 418.400000
3575 12303 3576 1 109.50000 418.400000
1648 12304 1649 1 109.50000 418.400000
1648 12304 3578 1 109.50000 418.400000
1648 12304 3579 1 109.50000 418.400000
1649 12304 3578 1 109.50000 418.400000
1649 12304 3579 1 109.50000 418.400000
3578 12304 3579 1 109.50000 418.400000
3002 12305 3580 1 109.50000 418.400000
3002 12305 3581 1 109.50000 418.400000
3002 12305 3582 1 109.50000 418.400000
3580 12305 3581 1 109.50000 418.400000
3580 12305 3582 1 109.50000 418.400000
3581 12305 3582 1 109.50000 418.400000
755 12306 2127 1 109.50000 418.400000
755 12306 3436 1 109.50000 418.400000
755 12306 3583 1 109.50000 418.400000
2127 12306 3436 1 109.50000 418.400000
2127 12306 3583 1 109.50000 418.400000
3436 12306 3583 1 109.50000 418.400000
286 12307 3584 1 109.50000 418.400000
286 12307 3585 1 109.50000 418.400000
286 12307 3586 1 109.50000 418.400000
3584 12307 3585 1 109.50000 418.400000
3584 12307 3586 1 109.50000 418.400000
3585 12307 3586 1 109.50000 418.400000
3588 12308 3589 1 109.50000 418.400000
3588 12308 3590 1 109.50000 418.400000
3588 12308 5393 1 109.50000 418.400000
3589 12308 3590 1 109.50000 418.400000
3589 12308 5393 1 109.50000 418.400000
3590 12308 5393 1 109.50000 418.400000
3591 12309 3592 1 109.50000 418.400000
3591 12309 3593 1 109.50000 418.400000
3591 12309 3594 1 109.50000 418.400000
3592 12309 3593 1 109.50000 418.400000
3592 12309 3594 1 109.50000 418.400000
3593 12309 3594 1 109.50000 418.400000
2446 12310 3595 1 109.50000 418.400000
2446 12310 3596 1 109.50000 418.400000
2446 12310 3597 1 109.50000 418.400000
3595 12310 3596 1 109.50000 418.400000
3595 12310 3597 1 109.50000 418.400000
3596 12310 3597 1 109.50000 418.400000
644 12311 3598 1 109.50000 418.400000
644 12311 3599 1 109.50000 418.400000
644 12311 3600 1 109.50000 418.400000
3598 12311 3599 1 109.50000 418.400000
3598 12311 3600 1 109.50000 418.400000
3599 12311 3600 1 109.50000 418.400000
612 12312 3602 1 109.50000 418.400000
612 12312 3603 1 109.50000 418.400000
612 12312 3604 1 109.50000 418.400000
3602 12312 3603 1 109.50000 418.400000
3602 12312 3604 1 109.50000 418.400000
3603 12312 3604 1 109.50000 418.400000
3605 12313 3606 1 109.50000 418.400000
3605 12313 3607 1 109.50000 418.400000
3605 12313 3608 1 109.50000 418.400000
3606 12313 3607 1 109.50000 418.400000
3606 12313 3608 1 109.50000 418.400000
3607 12313 3608 1 109.50000 418.400000
3609 12314 3610 1 109.50000 418.400000
3609 12314 3611 1 109.50000 418.400000
3609 12314 3612 1 109.50000 418.400000
3610 12314 3611 1 109.50000 418.400000
3610 12314 3612 1 109.50000 418.400000
3611 12314 3612 1 109.50000 418.400000
3613 12315 3614 1 109.50000 418.400000
3613 12315 3615 1 109.50000 418.400000
3613 12315 3616 1 109.50000 418.400000
3614 12315 3615 1 109.50000 418.400000
3614 12315 3616 1 109.50000 418.400000
3615 12315 3616 1 109.50000 418.400000
1499 12316 1500 1 109.50000 418.400000
1499 12316 3618 1 109.50000 418.400000
1499 12316 3619 1 109.50000 418.400000
1500 12316 3618 1 109.50000 418.400000
1500 12316 3619 1 109.50000 418.400000
3618 12316 3619 1 109.50000 418.400000
855 12317 3620 1 109.50000 418.400000
855 12317 3621 1 109.50000 418.400000
855 12317 3622 1 109.50000 418.400000
3620 12317 3621 1 109.50000 418.400000
3620 12317 3622 1 109.50000 418.400000
3621 12317 3622 1 109.50000 418.400000
3623 12318 3624 1 109.50000 418.400000
3623 12318 3626 1 109.50000 418.400000
3623 12318 6768 1 109.50000 418.400000
3624 12318 3626 1 109.50000 418.400000
3624 12318 6768 1 109.50000 418.400000
3626 12318 6768 1 109.50000 418.400000
543 12319 3629 1 109.50000 418.400000
543 12319 3631 1 109.50000 418.400000
543 12319 7820 1 109.50000 418.400000
3629 12319 3631 1 109.50000 418.400000
3629 12319 7820 1 109.50000 418.400000
3631 12319 7820 1 109.50000 418.400000
669 12320 3632 1 109.50000 418.400000
669 12320 3633 1 109.50000 418.400000
669 12320 3634 1 109.50000 418.400000
3632 12320 3633 1 109.50000 418.400000
3632 12320 3634 1 109.50000 418.400000
3633 12320 3634 1 109.50000 418.400000
641 12321 1555 1 109.50000 418.400000
641 12321 3636 1 109.50000 418.400000
641 12321 3637 1 109.50000 418.400000
1555 12321 3636 1 109.50000 418.400000
1555 12321 3637 1 109.50000 418.400000
3636 12321 3637 1 109.50000 418.400000
3638 12322 3639 1 109.50000 418.400000
3638 12322 3640 1 109.50000 418.400000
3638 12322 3641 1 109.50000 418.400000
3639 12322 3640 1 109.50000 418.400000
3639 12322 3641 1 109.50000 418.400000
3640 12322 3641 1 109.50000 418.400000
1118 12323 3642 1 109.50000 418.400000
1118 12323 3643 1 109.50000 418.400000
1118 12323 11316 1 109.50000 418.400000
3642 12323 3643 1 109.50000 418.400000
3642 12323 11316 1 109.50000 418.400000
3643 12323 11316 1 109.50000 418.400000
2584 12324 3644 1 109.50000 418.400000
2584 12324 3645 1 109.50000 418.400000
2584 12324 11266 1 109.50000 418.400000
3644 12324 3645 1 109.50000 418.400000
3644 12324 11266 1 109.50000 418.400000
3645 12324 11266 1 109.50000 418.400000
1766 12325 3646 1 109.50000 418.400000
1766 12325 3647 1 109.50000 418.400000
1766 12325 3648 1 109.50000 418.400000
3646 12325 3647 1 109.50000 418.400000
3646 12325 3648 1 109.50000 418.400000
3647 12325 3648 1 109.50000 418.400000
2436 12326 3259 1 109.50000 418.400000
2436 12326 3649 1 109.50000 418.400000
2436 12326 3650 1 109.50000 418.400000
3259 12326 3649 1 109.50000 418.400000
3259 12326 3650 1 109.50000 418.400000
3649 12326 3650 1 109.50000 418.400000
2845 12327 3651 1 109.50000 418.400000
2845 12327 3652 1 109.50000 418.400000
2845 12327 3653 1 109.50000 418.400000
3651 12327 3652 1 109.50000 418.400000
3651 12327 3653 1 109.50000 418.400000
3652 12327 3653 1 109.50000 418.400000
3654 12328 3656 1 109.50000 418.400000
3654 12328 3657 1 109.50000 418.400000
3654 12328 4332 1 109.50000 418.400000
3656 12328 3657 1 109.50000 418.400000
3656 12328 4332 1 109.50000 418.400000
3657 12328 4332 1 109.50000 418.400000
1744 12329 3658 1 109.50000 418.400000
1744 12329 3659 1 109.50000 418.400000
1744 12329 3660 1 109.50000 418.400000
3658 12329 3659 1 109.50000 418.400000
3658 12329 3660 1 109.50000 418.400000
3659 12329 3660 1 109.50000 418.400000
3032 12330 3661 1 109.50000 418.400000
3032 12330 3662 1 109.50000 418.400000
3032 12330 3663 1 109.50000 418.400000
3661 12330 3662 1 109.50000 418.400000
3661 12330 3663 1 109.50000 418.400000
3662 12330 3663 1 109.50000 418.400000
3664 12331 3665 1 109.50000 418.400000
3664 12331 3666 1 109.50000 418.400000
3664 12331 3667 1 109.50000 418.400000
3665 12331 3666 1 109.50000 418.400000
3665 12331 3667 1 109.50000 418.400000
3666 12331 3667 1 109.50000 418.400000
3668 12332 3669 1 109.50000 418.400000
3668 12332 3670 1 109.50000 418.400000
3668 12332 3671 1 109.50000 418.400000
3669 12332 3670 1 109.50000 418.400000
3669 12332 3671 1 109.50000 418.400000
3670 12332 3671 1 109.50000 418.400000
3672 12333 3673 1 109.50000 418.400000
3672 12333 3674 1 109.50000 418.400000
3672 12333 3675 1 109.50000 418.400000
3673 12333 3674 1 109.50000 418.400000
3673 12333 3675 1 109.50000 418.400000
3674 12333 3675 1 109.50000 418.400000
2216 12334 3678 1 109.50000 418.400000
2216 12334 3679 1 109.50000 418.400000
2216 12334 3680 1 109.50000 418.400000
3678 12334 3679 1 109.50000 418.400000
3678 12334 3680 1 109.50000 418.400000
3679 12334 3680 1 109.50000 418.400000
1802 12335 3274 1 109.50000 418.400000
1802 12335 3681 1 109.50000 418.400000
1802 12335 3682 1 109.50000 418.400000
3274 12335 3681 1 109.50000 418.400000
3274 12335 3682 1 109.50000 418.400000
3681 12335 3682 1 109.50000 418.400000
822 12336 3683 1 109.50000 418.400000
822 12336 3684 1 109.50000 418.400000
822 12336 3685 1 109.50000 418.400000
3683 12336 3684 1 109.50000 418.400000
3683 12336 3685 1 109.50000 418.400000
3684 12336 3685 1 109.50000 418.400000
2082 12337 2857 1 109.50000 418.400000
2082 12337 3686 1 109.50000 418.400000
2082 12337 3687 1 109.50000 418.400000
2857 12337 3686 1 109.50000 418.400000
2857 12337 3687 1 109.50000 418.400000
3686 12337 3687 1 109.50000 418.400000
2088 12338 3688 1 109.50000 418.400000
2088 12338 3689 1 109.50000 418.400000
2088 12338 3690 1 109.50000 418.400000
3688 12338 3689 1 109.50000 418.400000
3688 12338 3690 1 109.50000 418.400000
3689 12338 3690 1 109.50000 418.400000
1845 12339 3691 1 109.50000 418.400000
1845 12339 3692 1 109.50000 418.400000
1845 12339 3693 1 109.50000 418.400000
3691 12339 3692 1 109.50000 418.400000
3691 12339 3693 1 109.50000 418.400000
3692 12339 3693 1 109.50000 418.400000
3694 12340 3695 1 109.50000 418.400000
3694 12340 3696 1 109.50000 418.400000
3694 12340 3697 1 109.50000 418.400000
3695 12340 3696 1 109.50000 418.400000
3695 12340 3697 1 109.50000 418.400000
3696 12340 3697 1 109.50000 418.400000
3698 12341 3699 1 109.50000 418.400000
3698 12341 3700 1 109.50000 418.400000
3698 12341 3701 1 109.50000 418.400000
3699 12341 3700 1 109.50000 418.400000
3699 12341 3701 1 109.50000 418.400000
3700 12341 3701 1 109.50000 418.400000
950 12342 1396 1 109.50000 418.400000
950 12342 3702 1 109.50000 418.400000
950 12342 3703 1 109.50000 418.400000
1396 12342 3702 1 109.50000 418.400000
1396 12342 3703 1 109.50000 418.400000
3702 12342 3703 1 109.50000 418.400000
3704 12343 3705 1 109.50000 418.400000
3704 12343 3706 1 109.50000 418.400000
3704 12343 3707 1 109.50000 418.400000
3705 12343 3706 1 109.50000 418.400000
3705 12343 3707 1 109.50000 418.400000
3706 12343 3707 1 109.50000 418.400000
3709 12344 3710 1 109.50000 418.400000
3709 12344 3711 1 109.50000 418.400000
3709 12344 10468 1 109.50000 418.400000
3710 12344 3711 1 109.50000 418.400000
3710 12344 10468 1 109.50000 418.400000
3711 12344 10468 1 109.50000 418.400000
3712 12345 3713 1 109.50000 418.400000
3712 12345 3715 1 109.50000 418.400000
3712 12345 6794 1 109.50000 418.400000
3713 12345 3715 1 109.50000 418.400000
3713 12345 6794 1 109.50000 418.400000
3715 12345 6794 1 109.50000 418.400000
3716 12346 3717 1 109.50000 418.400000
3716 12346 3718 1 109.50000 418.400000
3716 12346 3719 1 109.50000 418.400000
3717 12346 3718 1 109.50000 418.400000
3717 12346 3719 1 109.50000 418.400000
3718 12346 3719 1 109.50000 418.400000
1004 12347 3720 1 109.50000 418.400000
1004 12347 3721 1 109.50000 418.400000
1004 12347 3722 1 109.50000 418.400000
3720 12347 3721 1 109.50000 418.400000
3720 12347 3722 1 109.50000 418.400000
3721 12347 3722 1 109.50000 418.400000
673 12348 3723 1 109.50000 418.400000
673 12348 3724 1 109.50000 418.400000
673 12348 3725 1 109.50000 418.400000
3723 12348 3724 1 109.50000 418.400000
3723 12348 3725 1 109.50000 418.400000
3724 12348 3725 1 109.50000 418.400000
2064 12349 2697 1 109.50000 418.400000
2064 12349 3726 1 109.50000 418.400000
2064 12349 3727 1 109.50000 418.400000
2697 12349 3726 1 109.50000 418.400000
2697 12349 3727 1 109.50000 418.400000
3726 12349 3727 1 109.50000 418.400000
3728 12350 3730 1 109.50000 418.400000
3728 12350 3731 1 109.50000 418.400000
3728 12350 6971 1 109.50000 418.400000
3730 12350 3731 1 109.50000 418.400000
3730 12350 6971 1 109.50000 418.400000
3731 12350 6971 1 109.50000 418.400000
3732 12351 3733 1 109.50000 418.400000
3732 12351 3734 1 109.50000 418.400000
3732 12351 3735 1 109.50000 418.400000
3733 12351 3734 1 109.50000 418.400000
3733 12351 3735 1 109.50000 418.400000
3734 12351 3735 1 109.50000 418.400000
18 12352 3738 1 109.50000 418.400000
18 12352 3739 1 109.50000 418.400000
18 12352 3740 1 109.50000 418.400000
3738 12352 3739 1 109.50000 418.400000
3738 12352 3740 1 109.50000 418.400000
3739 12352 3740 1 109.50000 418.400000
3741 12353 3742 1 109.50000 418.400000
3741 12353 3743 1 109.50000 418.400000
3741 12353 3744 1 109.50000 418.400000
3742 12353 3743 1 109.50000 418.400000
3742 12353 3744 1 109.50000 418.400000
3743 12353 3744 1 109.50000 418.400000
3745 12354 3746 1 109.50000 418.400000
3745 12354 3747 1 109.50000 418.400000
3745 12354 3748 1 109.50000 418.400000
3746 12354 3747 1 109.50000 418.400000
3746 12354 3748 1 109.50000 418.400000
3747 12354 3748 1 109.50000 418.400000
1265 12355 3477 1 109.50000 418.400000
1265 12355 3749 1 109.50000 418.400000
1265 12355 3750 1 109.50000 418.400000
3477 12355 3749 1 109.50000 418.400000
3477 12355 3750 1 109.50000 418.400000
3749 12355 3750 1 109.50000 418.400000
3751 12356 3752 1 109.50000 418.400000
3751 12356 3753 1 109.50000 418.400000
3751 12356 3754 1 109.50000 418.400000
3752 12356 3753 1 109.50000 418.400000
3752 12356 3754 1 109.50000 418.400000
3753 12356 3754 1 109.50000 418.400000
3755 12357 3756 1 109.50000 418.400000
3755 12357 3757 1 109.50000 418.400000
3755 12357 3758 1 109.50000 418.400000
3756 12357 3757 1 109.50000 418.400000
3756 12357 3758 1 109.50000 418.400000
3757 12357 3758 1 109.50000 418.400000
2572 12358 2573 1 109.50000 418.400000
2572 12358 3760 1 109.50000 418.400000
2572 12358 3761 1 109.50000 418.400000
2573 12358 3760 1 109.50000 418.400000
2573 12358 3761 1 109.50000 418.400000
3760 12358 3761 1 109.50000 418.400000
2524 12359 3315 1 109.50000 418.400000
2524 12359 3762 1 109.50000 418.400000
2524 12359 3763 1 109.50000 418.400000
3315 12359 3762 1 109.50000 418.400000
3315 12359 3763 1 109.50000 418.400000
3762 12359 3763 1 109.50000 418.400000
1134 12360 1152 1 109.50000 418.400000
1134 12360 3764 1 109.50000 418.400000
1134 12360 3765 1 109.50000 418.400000
1152 12360 3764 1 109.50000 418.400000
1152 12360 3765 1 109.50000 418.400000
3764 12360 3765 1 109.50000 418.400000
3766 12361 3767 1 109.50000 418.400000
3766 12361 3768 1 109.50000 418.400000
3766 12361 3769 1 109.50000 418.400000
3767 12361 3768 1 109.50000 418.400000
3767 12361 3769 1 109.50000 418.400000
3768 12361 3769 1 109.50000 418.400000
958 12362 960 1 109.50000 418.400000
958 12362 2190 1 109.50000 418.400000
958 12362 2818 1 109.50000 418.400000
960 12362 2190 1 109.50000 418.400000
960 12362 2818 1 109.50000 418.400000
2190 12362 2818 1 109.50000 418.400000
1069 12363 3773 1 109.50000 418.400000
1069 12363 3774 1 109.50000 418.400000
1069 12363 3775 1 109.50000 418.400000
3773 12363 3774 1 109.50000 418.400000
3773 12363 3775 1 109.50000 418.400000
3774 12363 3775 1 109.50000 418.400000
3776 12364 3777 1 109.50000 418.400000
3776 12364 3778 1 109.50000 418.400000
3776 12364 3779 1 109.50000 418.400000
3777 12364 3778 1 109.50000 418.400000
3777 12364 3779 1 109.50000 418.400000
3778 12364 3779 1 109.50000 418.400000
3780 12365 3781 1 109.50000 418.400000
3780 12365 3782 1 109.50000 418.400000
3780 12365 3783 1 109.50000 418.400000
3781 12365 3782 1 109.50000 418.400000
3781 12365 3783 1 109.50000 418.400000
3782 12365 3783 1 109.50000 418.400000
2972 12366 3784 1 109.50000 418.400000
2972 12366 3785 1 109.50000 418.400000
2972 12366 3786 1 109.50000 418.400000
3784 12366 3785 1 109.50000 418.400000
3784 12366 3786 1 109.50000 418.400000
3785 12366 3786 1 109.50000 418.400000
3787 12367 3788 1 109.50000 418.400000
3787 12367 3789 1 109.50000 418.400000
3787 12367 3805 1 109.50000 418.400000
3788 12367 3789 1 109.50000 418.400000
3788 12367 3805 1 109.50000 418.400000
3789 12367 3805 1 109.50000 418.400000
2268 12368 3790 1 109.50000 418.400000
2268 12368 3791 1 109.50000 418.400000
2268 12368 3792 1 109.50000 418.400000
3790 12368 3791 1 109.50000 418.400000
3790 12368 3792 1 109.50000 418.400000
3791 12368 3792 1 109.50000 418.400000
3793 12369 3794 1 109.50000 418.400000
3793 12369 3795 1 109.50000 418.400000
3793 12369 3796 1 109.50000 418.400000
3794 12369 3795 1 109.50000 418.400000
3794 12369 3796 1 109.50000 418.400000
3795 12369 3796 1 109.50000 418.400000
3797 12370 3798 1 109.50000 418.400000
3797 12370 3799 1 109.50000 418.400000
3797 12370 3800 1 109.50000 418.400000
3798 12370 3799 1 109.50000 418.400000
3798 12370 3800 1 109.50000 418.400000
3799 12370 3800 1 109.50000 418.400000
3801 12371 3802 1 109.50000 418.400000
3801 12371 3803 1 109.50000 418.400000
3801 12371 3804 1 109.50000 418.400000
3802 12371 3803 1 109.50000 418.400000
3802 12371 3804 1 109.50000 418.400000
3803 12371 3804 1 109.50000 418.400000
3196 12372 3788 1 109.50000 418.400000
3196 12372 3806 1 109.50000 418.400000
3196 12372 3807 1 109.50000 418.400000
3788 12372 3806 1 109.50000 418.400000
3788 12372 3807 1 109.50000 418.400000
3806 12372 3807 1 109.50000 418.400000
3808 12373 3809 1 109.50000 418.400000
3808 12373 3810 1 109.50000 418.400000
3808 12373 3811 1 109.50000 418.400000
3809 12373 3810 1 109.50000 418.400000
3809 12373 3811 1 109.50000 418.400000
3810 12373 3811 1 109.50000 418.400000
3813 12374 3814 1 109.50000 418.400000
3813 12374 3815 1 109.50000 418.400000
3813 12374 9228 1 109.50000 418.400000
3814 12374 3815 1 109.50000 418.400000
3814 12374 9228 1 109.50000 418.400000
3815 12374 9228 1 109.50000 418.400000
1627 12375 3816 1 109.50000 418.400000
1627 12375 3817 1 109.50000 418.400000
1627 12375 3818 1 109.50000 418.400000
3816 12375 3817 1 109.50000 418.400000
3816 12375 3818 1 109.50000 418.400000
3817 12375 3818 1 109.50000 418.400000
3819 12376 3820 1 109.50000 418.400000
3819 12376 3821 1 109.50000 418.400000
3819 12376 3822 1 109.50000 418.400000
3820 12376 3821 1 109.50000 418.400000
3820 12376 3822 1 109.50000 418.400000
3821 12376 3822 1 109.50000 418.400000
2479 12377 3823 1 109.50000 418.400000
2479 12377 3824 1 109.50000 418.400000
2479 12377 3825 1 109.50000 418.400000
3823 12377 3824 1 109.50000 418.400000
3823 12377 3825 1 109.50000 418.400000
3824 12377 3825 1 109.50000 418.400000
591 12378 3826 1 109.50000 418.400000
591 12378 3827 1 109.50000 418.400000
591 12378 3828 1 109.50000 418.400000
3826 12378 3827 1 109.50000 418.400000
3826 12378 3828 1 109.50000 418.400000
3827 12378 3828 1 109.50000 418.400000
2974 12379 3829 1 109.50000 418.400000
2974 12379 3830 1 109.50000 418.400000
2974 12379 3831 1 109.50000 418.400000
3829 12379 3830 1 109.50000 418.400000
3829 12379 3831 1 109.50000 418.400000
3830 12379 3831 1 109.50000 418.400000
3832 12380 3834 1 109.50000 418.400000
3832 12380 4789 1 109.50000 418.400000
3832 12380 9939 1 109.50000 418.400000
3834 12380 4789 1 109.50000 418.400000
3834 12380 9939 1 109.50000 418.400000
4789 12380 9939 1 109.50000 418.400000
2723 12381 3835 1 109.50000 418.400000
2723 12381 3836 1 109.50000 418.400000
2723 12381 3837 1 109.50000 418.400000
3835 12381 3836 1 109.50000 418.400000
3835 12381 3837 1 109.50000 418.400000
3836 12381 3837 1 109.50000 418.400000
3838 12382 3839 1 109.50000 418.400000
3838 12382 3840 1 109.50000 418.400000
3838 12382 3841 1 109.50000 418.400000
3839 12382 3840 1 109.50000 418.400000
3839 12382 3841 1 109.50000 418.400000
3840 12382 3841 1 109.50000 418.400000
3063 12383 3842 1 109.50000 418.400000
3063 12383 3843 1 109.50000 418.400000
3063 12383 3844 1 109.50000 418.400000
3842 12383 3843 1 109.50000 418.400000
3842 12383 3844 1 109.50000 418.400000
3843 12383 3844 1 109.50000 418.400000
3845 12384 3846 1 109.50000 418.400000
3845 12384 3847 1 109.50000 418.400000
3845 12384 3848 1 109.50000 418.400000
3846 12384 3847 1 109.50000 418.400000
3846 12384 3848 1 109.50000 418.400000
3847 12384 3848 1 109.50000 418.400000
1588 12385 3849 1 109.50000 418.400000
1588 12385 3850 1 109.50000 418.400000
1588 12385 3851 1 109.50000 418.400000
3849 12385 3850 1 109.50000 418.400000
3849 12385 3851 1 109.50000 418.400000
3850 12385 3851 1 109.50000 418.400000
1659 12386 3852 1 109.50000 418.400000
1659 12386 3853 1 109.50000 418.400000
1659 12386 3854 1 109.50000 418.400000
3852 12386 3853 1 109.50000 418.400000
3852 12386 3854 1 109.50000 418.400000
3853 12386 3854 1 109.50000 418.400000
3855 12387 3856 1 109.50000 418.400000
3855 12387 3857 1 109.50000 418.400000
3855 12387 3858 1 109.50000 418.400000
3856 12387 3857 1 109.50000 418.400000
3856 12387 3858 1 109.50000 418.400000
3857 12387 3858 1 109.50000 418.400000
3859 12388 3860 1 109.50000 418.400000
3859 12388 3861 1 109.50000 418.400000
3859 12388 3862 1 109.50000 418.400000
3860 12388 3861 1 109.50000 418.400000
3860 12388 3862 1 109.50000 418.400000
3861 12388 3862 1 109.50000 418.400000
3863 12389 3864 1 109.50000 418.400000
3863 12389 3865 1 109.50000 418.400000
3863 12389 3866 1 109.50000 418.400000
3864 12389 3865 1 109.50000 418.400000
3864 12389 3866 1 109.50000 418.400000
3865 12389 3866 1 109.50000 418.400000
1608 12390 2333 1 109.50000 418.400000
1608 12390 3867 1 109.50000 418.400000
1608 12390 3868 1 109.50000 418.400000
2333 12390 3867 1 109.50000 418.400000
2333 12390 3868 1 109.50000 418.400000
3867 12390 3868 1 109.50000 418.400000
739 12391 1767 1 109.50000 418.400000
739 12391 3563 1 109.50000 418.400000
739 12391 3869 1 109.50000 418.400000
1767 12391 3563 1 109.50000 418.400000
1767 12391 3869 1 109.50000 418.400000
3563 12391 3869 1 109.50000 418.400000
3805 12392 3870 1 109.50000 418.400000
3805 12392 3871 1 109.50000 418.400000
3805 12392 3872 1 109.50000 418.400000
3870 12392 3871 1 109.50000 418.400000
3870 12392 3872 1 109.50000 418.400000
3871 12392 3872 1 109.50000 418.400000
3873 12393 3874 1 109.50000 418.400000
3873 12393 3875 1 109.50000 418.400000
3873 12393 3876 1 109.50000 418.400000
3874 12393 3875 1 109.50000 418.400000
3874 12393 3876 1 109.50000 418.400000
3875 12393 3876 1 109.50000 418.400000
3882 12394 3883 1 109.50000 418.400000
3882 12394 3884 1 109.50000 418.400000
3882 12394 3885 1 109.50000 418.400000
3883 12394 3884 1 109.50000 418.400000
3883 12394 3885 1 109.50000 418.400000
3884 12394 3885 1 109.50000 418.400000
200 12395 3886 1 109.50000 418.400000
200 12395 3887 1 109.50000 418.400000
200 12395 3888 1 109.50000 418.400000
3886 12395 3887 1 109.50000 418.400000
3886 12395 3888 1 109.50000 418.400000
3887 12395 3888 1 109.50000 418.400000
738 12396 3889 1 109.50000 418.400000
738 12396 3890 1 109.50000 418.400000
738 12396 3891 1 109.50000 418.400000
3889 12396 3890 1 109.50000 418.400000
3889 12396 3891 1 109.50000 418.400000
3890 12396 3891 1 109.50000 418.400000
3250 12397 3892 1 109.50000 418.400000
3250 12397 3893 1 109.50000 418.400000
3250 12397 3894 1 109.50000 418.400000
3892 12397 3893 1 109.50000 418.400000
3892 12397 3894 1 109.50000 418.400000
3893 12397 3894 1 109.50000 418.400000
3895 12398 3896 1 109.50000 418.400000
3895 12398 3897 1 109.50000 418.400000
3895 12398 3898 1 109.50000 418.400000
3896 12398 3897 1 109.50000 418.400000
3896 12398 3898 1 109.50000 418.400000
3897 12398 3898 1 109.50000 418.400000
457 12399 3899 1 109.50000 418.400000
457 12399 3900 1 109.50000 418.400000
457 12399 3901 1 109.50000 418.400000
3899 12399 3900 1 109.50000 418.400000
3899 12399 3901 1 109.50000 418.400000
3900 12399 3901 1 109.50000 418.400000
3902 12400 3903 1 109.50000 418.400000
3902 12400 3904 1 109.50000 418.400000
3902 12400 3905 1 109.50000 418.400000
3903 12400 3904 1 109.50000 418.400000
3903 12400 3905 1 109.50000 418.400000
3904 12400 3905 1 109.50000 418.400000
3906 12401 3907 1 109.50000 418.400000
3906 12401 3908 1 109.50000 418.400000
3906 12401 3909 1 109.50000 418.400000
3907 12401 3908 1 109.50000 418.400000
3907 12401 3909 1 109.50000 418.400000
3908 12401 3909 1 109.50000 418.400000
3600 12402 3910 1 109.50000 418.400000
3600 12402 3911 1 109.50000 418.400000
3600 12402 3912 1 109.50000 418.400000
3910 12402 3911 1 109.50000 418.400000
3910 12402 3912 1 109.50000 418.400000
3911 12402 3912 1 109.50000 418.400000
370 12403 3754 1 109.50000 418.400000
370 12403 3913 1 109.50000 418.400000
370 12403 3914 1 109.50000 418.400000
3754 12403 3913 1 109.50000 418.400000
3754 12403 3914 1 109.50000 418.400000
3913 12403 3914 1 109.50000 418.400000
3915 12404 3916 1 109.50000 418.400000
3915 12404 3917 1 109.50000 418.400000
3915 12404 3918 1 109.50000 418.400000
3916 12404 3917 1 109.50000 418.400000
3916 12404 3918 1 109.50000 418.400000
3917 12404 3918 1 109.50000 418.400000
3920 12405 3921 1 109.50000 418.400000
3920 12405 7085 1 109.50000 418.400000
3920 12405 8211 1 109.50000 418.400000
3921 12405 7085 1 109.50000 418.400000
3921 12405 8211 1 109.50000 418.400000
7085 12405 8211 1 109.50000 418.400000
537 12406 727 1 109.50000 418.400000
537 12406 2894 1 109.50000 418.400000
537 12406 3923 1 109.50000 418.400000
727 12406 2894 1 109.50000 418.400000
727 12406 3923 1 109.50000 418.400000
2894 12406 3923 1 109.50000 418.400000
3706 12407 3924 1 109.50000 418.400000
3706 12407 3925 1 109.50000 418.400000
3706 12407 3926 1 109.50000 418.400000
3924 12407 3925 1 109.50000 418.400000
3924 12407 3926 1 109.50000 418.400000
3925 12407 3926 1 109.50000 418.400000
563 12408 2993 1 109.50000 418.400000
563 12408 3927 1 109.50000 418.400000
563 12408 3928 1 109.50000 418.400000
2993 12408 3927 1 109.50000 418.400000
2993 12408 3928 1 109.50000 418.400000
3927 12408 3928 1 109.50000 418.400000
3931 12409 3932 1 109.50000 418.400000
3931 12409 3933 1 109.50000 418.400000
3931 12409 3934 1 109.50000 418.400000
3932 12409 3933 1 109.50000 418.400000
3932 12409 3934 1 109.50000 418.400000
3933 12409 3934 1 109.50000 418.400000
1741 12410 3937 1 109.50000 418.400000
1741 12410 3938 1 109.50000 418.400000
1741 12410 6861 1 109.50000 418.400000
3937 12410 3938 1 109.50000 418.400000
3937 12410 6861 1 109.50000 418.400000
3938 12410 6861 1 109.50000 418.400000
3939 12411 3940 1 109.50000 418.400000
3939 12411 3941 1 109.50000 418.400000
3939 12411 3942 1 109.50000 418.400000
3940 12411 3941 1 109.50000 418.400000
3940 12411 3942 1 109.50000 418.400000
3941 12411 3942 1 109.50000 418.400000
3279 12412 3943 1 109.50000 418.400000
3279 12412 3944 1 109.50000 418.400000
3279 12412 3945 1 109.50000 418.400000
3943 12412 3944 1 109.50000 418.400000
3943 12412 3945 1 109.50000 418.400000
3944 12412 3945 1 109.50000 418.400000
1423 12413 1957 1 109.50000 418.400000
1423 12413 3249 1 109.50000 418.400000
1423 12413 3946 1 109.50000 418.400000
1957 12413 3249 1 109.50000 418.400000
1957 12413 3946 1 109.50000 418.400000
3249 12413 3946 1 109.50000 418.400000
103 12414 3947 1 109.50000 418.400000
103 12414 3948 1 109.50000 418.400000
103 12414 3949 1 109.50000 418.400000
3947 12414 3948 1 109.50000 418.400000
3947 12414 3949 1 109.50000 418.400000
3948 12414 3949 1 109.50000 418.400000
3950 12415 3951 1 109.50000 418.400000
3950 12415 3952 1 109.50000 418.400000
3950 12415 3953 1 109.50000 418.400000
3951 12415 3952 1 109.50000 418.400000
3951 12415 3953 1 109.50000 418.400000
3952 12415 3953 1 109.50000 418.400000
3954 12416 3955 1 109.50000 418.400000
3954 12416 3957 1 109.50000 418.400000
3954 12416 7409 1 109.50000 418.400000
3955 12416 3957 1 109.50000 418.400000
3955 12416 7409 1 109.50000 418.400000
3957 12416 7409 1 109.50000 418.400000
2526 12417 3670 1 109.50000 418.400000
2526 12417 3958 1 109.50000 418.400000
2526 12417 3959 1 109.50000 418.400000
3670 12417 3958 1 109.50000 418.400000
3670 12417 3959 1 109.50000 418.400000
3958 12417 3959 1 109.50000 418.400000
882 12418 1547 1 109.50000 418.400000
882 12418 3960 1 109.50000 418.400000
882 12418 3961 1 109.50000 418.400000
1547 12418 3960 1 109.50000 418.400000
1547 12418 3961 1 109.50000 418.400000
3960 12418 3961 1 109.50000 418.400000
3962 12419 3963 1 109.50000 418.400000
3962 12419 3964 1 109.50000 418.400000
3962 12419 3965 1 109.50000 418.400000
3963 12419 3964 1 109.50000 418.400000
3963 12419 3965 1 109.50000 418.400000
3964 12419 3965 1 109.50000 418.400000
3966 12420 3967 1 109.50000 418.400000
3966 12420 3968 1 109.50000 418.400000
3966 12420 3969 1 109.50000 418.400000
3967 12420 3968 1 109.50000 418.400000
3967 12420 3969 1 109.50000 418.400000
3968 12420 3969 1 109.50000 418.400000
1568 12421 1569 1 109.50000 418.400000
1568 12421 3970 1 109.50000 418.400000
1568 12421 3971 1 109.50000 418.400000
1569 12421 3970 1 109.50000 418.400000
1569 12421 3971 1 109.50000 418.400000
3970 12421 3971 1 109.50000 418.400000
3973 12422 3974 1 109.50000 418.400000
3973 12422 3975 1 109.50000 418.400000
3973 12422 3976 1 109.50000 418.400000
3974 12422 3975 1 109.50000 418.400000
3974 12422 3976 1 109.50000 418.400000
3975 12422 3976 1 109.50000 418.400000
634 12423 3977 1 109.50000 418.400000
634 12423 3978 1 109.50000 418.400000
634 12423 9486 1 109.50000 418.400000
3977 12423 3978 1 109.50000 418.400000
3977 12423 9486 1 109.50000 418.400000
3978 12423 9486 1 109.50000 418.400000
1345 12424 3979 1 109.50000 418.400000
1345 12424 3980 1 109.50000 418.400000
1345 12424 3981 1 109.50000 418.400000
3979 12424 3980 1 109.50000 418.400000
3979 12424 3981 1 109.50000 418.400000
3980 12424 3981 1 109.50000 418.400000
3905 12425 3982 1 109.50000 418.400000
3905 12425 3983 1 109.50000 418.400000
3905 12425 3984 1 109.50000 418.400000
3982 12425 3983 1 109.50000 418.400000
3982 12425 3984 1 109.50000 418.400000
3983 12425 3984 1 109.50000 418.400000
3985 12426 3986 1 109.50000 418.400000
3985 12426 3987 1 109.50000 418.400000
3985 12426 3988 1 109.50000 418.400000
3986 12426 3987 1 109.50000 418.400000
3986 12426 3988 1 109.50000 418.400000
3987 12426 3988 1 109.50000 418.400000
3989 12427 3990 1 109.50000 418.400000
3989 12427 3991 1 109.50000 418.400000
3989 12427 3992 1 109.50000 418.400000
3990 12427 3991 1 109.50000 418.400000
3990 12427 3992 1 109.50000 418.400000
3991 12427 3992 1 109.50000 418.400000
3993 12428 3994 1 109.50000 418.400000
3993 12428 3995 1 109.50000 418.400000
3993 12428 3996 1 109.50000 418.400000
3994 12428 3995 1 109.50000 418.400000
3994 12428 3996 1 109.50000 418.400000
3995 12428 3996 1 109.50000 418.400000
2075 12429 3997 1 109.50000 418.400000
2075 12429 3998 1 109.50000 418.400000
2075 12429 3999 1 109.50000 418.400000
3997 12429 3998 1 109.50000 418.400000
3997 12429 3999 1 109.50000 418.400000
3998 12429 3999 1 109.50000 418.400000
1019 12430 4000 1 109.50000 418.400000
1019 12430 4001 1 109.50000 418.400000
1019 12430 4002 1 109.50000 418.400000
4000 12430 4001 1 109.50000 418.400000
4000 12430 4002 1 109.50000 418.400000
4001 12430 4002 1 109.50000 418.400000
577 12431 1841 1 109.50000 418.400000
577 12431 4003 1 109.50000 418.400000
577 12431 4004 1 109.50000 418.400000
1841 12431 4003 1 109.50000 418.400000
1841 12431 4004 1 109.50000 418.400000
4003 12431 4004 1 109.50000 418.400000
4005 12432 4006 1 109.50000 418.400000
4005 12432 4007 1 109.50000 418.400000
4005 12432 4008 1 109.50000 418.400000
4006 12432 4007 1 109.50000 418.400000
4006 12432 4008 1 109.50000 418.400000
4007 12432 4008 1 109.50000 418.400000
1273 12433 4009 1 109.50000 418.400000
1273 12433 4010 1 109.50000 418.400000
1273 12433 4011 1 109.50000 418.400000
4009 12433 4010 1 109.50000 418.400000
4009 12433 4011 1 109.50000 418.400000
4010 12433 4011 1 109.50000 418.400000
1773 12434 3971 1 109.50000 418.400000
1773 12434 4012 1 109.50000 418.400000
1773 12434 4013 1 109.50000 418.400000
3971 12434 4012 1 109.50000 418.400000
3971 12434 4013 1 109.50000 418.400000
4012 12434 4013 1 109.50000 418.400000
4014 12435 4015 1 109.50000 418.400000
4014 12435 4016 1 109.50000 418.400000
4014 12435 11152 1 109.50000 418.400000
4015 12435 4016 1 109.50000 418.400000
4015 12435 11152 1 109.50000 418.400000
4016 12435 11152 1 109.50000 418.400000
2531 12436 4019 1 109.50000 418.400000
2531 12436 4020 1 109.50000 418.400000
2531 12436 4021 1 109.50000 418.400000
4019 12436 4020 1 109.50000 418.400000
4019 12436 4021 1 109.50000 418.400000
4020 12436 4021 1 109.50000 418.400000
4023 12437 4024 1 109.50000 418.400000
4023 12437 4025 1 109.50000 418.400000
4023 12437 10492 1 109.50000 418.400000
4024 12437 4025 1 109.50000 418.400000
4024 12437 10492 1 109.50000 418.400000
4025 12437 10492 1 109.50000 418.400000
3308 12438 4026 1 109.50000 418.400000
3308 12438 6468 1 109.50000 418.400000
3308 12438 6470 1 109.50000 418.400000
4026 12438 6468 1 109.50000 418.400000
4026 12438 6470 1 109.50000 418.400000
6468 12438 6470 1 109.50000 418.400000
895 12439 897 1 109.50000 418.400000
895 12439 4031 1 109.50000 418.400000
895 12439 4032 1 109.50000 418.400000
897 12439 4031 1 109.50000 418.400000
897 12439 4032 1 109.50000 418.400000
4031 12439 4032 1 109.50000 418.400000
4035 12440 4037 1 109.50000 418.400000
4035 12440 4038 1 109.50000 418.400000
4035 12440 9062 1 109.50000 418.400000
4037 12440 4038 1 109.50000 418.400000
4037 12440 9062 1 109.50000 418.400000
4038 12440 9062 1 109.50000 418.400000
10 12441 507 1 109.50000 418.400000
10 12441 4039 1 109.50000 418.400000
10 12441 4040 1 109.50000 418.400000
507 12441 4039 1 109.50000 418.400000
507 12441 4040 1 109.50000 418.400000
4039 12441 4040 1 109.50000 418.400000
1170 12442 4041 1 109.50000 418.400000
1170 12442 4042 1 109.50000 418.400000
1170 12442 11301 1 109.50000 418.400000
4041 12442 4042 1 109.50000 418.400000
4041 12442 11301 1 109.50000 418.400000
4042 12442 11301 1 109.50000 418.400000
1708 12443 4043 1 109.50000 418.400000
1708 12443 4044 1 109.50000 418.400000
1708 12443 4045 1 109.50000 418.400000
4043 12443 4044 1 109.50000 418.400000
4043 12443 4045 1 109.50000 418.400000
4044 12443 4045 1 109.50000 418.400000
3026 12444 4046 1 109.50000 418.400000
3026 12444 4047 1 109.50000 418.400000
3026 12444 4048 1 109.50000 418.400000
4046 12444 4047 1 109.50000 418.400000
4046 12444 4048 1 109.50000 418.400000
4047 12444 4048 1 109.50000 418.400000
4049 12445 4050 1 109.50000 418.400000
4049 12445 4051 1 109.50000 418.400000
4049 12445 4052 1 109.50000 418.400000
4050 12445 4051 1 109.50000 418.400000
4050 12445 4052 1 109.50000 418.400000
4051 12445 4052 1 109.50000 418.400000
62 12446 4053 1 109.50000 418.400000
62 12446 4054 1 109.50000 418.400000
62 12446 4055 1 109.50000 418.400000
4053 12446 4054 1 109.50000 418.400000
4053 12446 4055 1 109.50000 418.400000
4054 12446 4055 1 109.50000 418.400000
2032 12447 4056 1 109.50000 418.400000
2032 12447 4057 1 109.50000 418.400000
2032 12447 4058 1 109.50000 418.400000
4056 12447 4057 1 109.50000 418.400000
4056 12447 4058 1 109.50000 418.400000
4057 12447 4058 1 109.50000 418.400000
78 12448 4059 1 109.50000 418.400000
78 12448 4060 1 109.50000 418.400000
78 12448 4061 1 109.50000 418.400000
4059 12448 4060 1 109.50000 418.400000
4059 12448 4061 1 109.50000 418.400000
4060 12448 4061 1 109.50000 418.400000
4062 12449 4063 1 109.50000 418.400000
4062 12449 4064 1 109.50000 418.400000
4062 12449 4065 1 109.50000 418.400000
4063 12449 4064 1 109.50000 418.400000
4063 12449 4065 1 109.50000 418.400000
4064 12449 4065 1 109.50000 418.400000
3193 12450 4066 1 109.50000 418.400000
3193 12450 4068 1 109.50000 418.400000
3193 12450 5893 1 109.50000 418.400000
4066 12450 4068 1 109.50000 418.400000
4066 12450 5893 1 109.50000 418.400000
4068 12450 5893 1 109.50000 418.400000
2941 12451 2943 1 109.50000 418.400000
2941 12451 3652 1 109.50000 418.400000
2941 12451 4069 1 109.50000 418.400000
2943 12451 3652 1 109.50000 418.400000
2943 12451 4069 1 109.50000 418.400000
3652 12451 4069 1 109.50000 418.400000
4070 12452 4071 1 109.50000 418.400000
4070 12452 4072 1 109.50000 418.400000
4070 12452 4073 1 109.50000 418.400000
4071 12452 4072 1 109.50000 418.400000
4071 12452 4073 1 109.50000 418.400000
4072 12452 4073 1 109.50000 418.400000
2715 12453 4074 1 109.50000 418.400000
2715 12453 4075 1 109.50000 418.400000
2715 12453 4076 1 109.50000 418.400000
4074 12453 4075 1 109.50000 418.400000
4074 12453 4076 1 109.50000 418.400000
4075 12453 4076 1 109.50000 418.400000
4077 12454 4078 1 109.50000 418.400000
4077 12454 4079 1 109.50000 418.400000
4077 12454 4080 1 109.50000 418.400000
4078 12454 4079 1 109.50000 418.400000
4078 12454 4080 1 109.50000 418.400000
4079 12454 4080 1 109.50000 418.400000
1696 12455 1697 1 109.50000 418.400000
1696 12455 4082 1 109.50000 418.400000
1696 12455 4083 1 109.50000 418.400000
1697 12455 4082 1 109.50000 418.400000
1697 12455 4083 1 109.50000 418.400000
4082 12455 4083 1 109.50000 418.400000
2233 12456 2342 1 109.50000 418.400000
2233 12456 4084 1 109.50000 418.400000
2233 12456 4085 1 109.50000 418.400000
2342 12456 4084 1 109.50000 418.400000
2342 12456 4085 1 109.50000 418.400000
4084 12456 4085 1 109.50000 418.400000
1331 12457 4086 1 109.50000 418.400000
1331 12457 4087 1 109.50000 418.400000
1331 12457 4088 1 109.50000 418.400000
4086 12457 4087 1 109.50000 418.400000
4086 12457 4088 1 109.50000 418.400000
4087 12457 4088 1 109.50000 418.400000
3360 12458 4089 1 109.50000 418.400000
3360 12458 4090 1 109.50000 418.400000
3360 12458 4091 1 109.50000 418.400000
4089 12458 4090 1 109.50000 418.400000
4089 12458 4091 1 109.50000 418.400000
4090 12458 4091 1 109.50000 418.400000
4092 12459 4093 1 109.50000 418.400000
4092 12459 4094 1 109.50000 418.400000
4092 12459 4095 1 109.50000 418.400000
4093 12459 4094 1 109.50000 418.400000
4093 12459 4095 1 109.50000 418.400000
4094 12459 4095 1 109.50000 418.400000
4096 12460 4097 1 109.50000 418.400000
4096 12460 4098 1 109.50000 418.400000
4096 12460 4099 1 109.50000 418.400000
4097 12460 4098 1 109.50000 418.400000
4097 12460 4099 1 109.50000 418.400000
4098 12460 4099 1 109.50000 418.400000
409 12461 1379 1 109.50000 418.400000
409 12461 4100 1 109.50000 418.400000
409 12461 6959 1 109.50000 418.400000
1379 12461 4100 1 109.50000 418.400000
1379 12461 6959 1 109.50000 418.400000
4100 12461 6959 1 109.50000 418.400000
4044 12462 4104 1 109.50000 418.400000
4044 12462 4105 1 109.50000 418.400000
4044 12462 4106 1 109.50000 418.400000
4104 12462 4105 1 109.50000 418.400000
4104 12462 4106 1 109.50000 418.400000
4105 12462 4106 1 109.50000 418.400000
4108 12463 4109 1 109.50000 418.400000
4108 12463 4110 1 109.50000 418.400000
4108 12463 11250 1 109.50000 418.400000
4109 12463 4110 1 109.50000 418.400000
4109 12463 11250 1 109.50000 418.400000
4110 12463 11250 1 109.50000 418.400000
1252 12464 1278 1 109.50000 418.400000
1252 12464 4112 1 109.50000 418.400000
1252 12464 4113 1 109.50000 418.400000
1278 12464 4112 1 109.50000 418.400000
1278 12464 4113 1 109.50000 418.400000
4112 12464 4113 1 109.50000 418.400000
4114 12465 4115 1 109.50000 418.400000
4114 12465 4116 1 109.50000 418.400000
4114 12465 4117 1 109.50000 418.400000
4115 12465 4116 1 109.50000 418.400000
4115 12465 4117 1 109.50000 418.400000
4116 12465 4117 1 109.50000 418.400000
1469 12466 1471 1 109.50000 418.400000
1469 12466 4118 1 109.50000 418.400000
1469 12466 4119 1 109.50000 418.400000
1471 12466 4118 1 109.50000 418.400000
1471 12466 4119 1 109.50000 418.400000
4118 12466 4119 1 109.50000 418.400000
4120 12467 4121 1 109.50000 418.400000
4120 12467 4122 1 109.50000 418.400000
4120 12467 4123 1 109.50000 418.400000
4121 12467 4122 1 109.50000 418.400000
4121 12467 4123 1 109.50000 418.400000
4122 12467 4123 1 109.50000 418.400000
4124 12468 4125 1 109.50000 418.400000
4124 12468 4126 1 109.50000 418.400000
4124 12468 4127 1 109.50000 418.400000
4125 12468 4126 1 109.50000 418.400000
4125 12468 4127 1 109.50000 418.400000
4126 12468 4127 1 109.50000 418.400000
1086 12469 1586 1 109.50000 418.400000
1086 12469 4128 1 109.50000 418.400000
1086 12469 4129 1 109.50000 418.400000
1586 12469 4128 1 109.50000 418.400000
1586 12469 4129 1 109.50000 418.400000
4128 12469 4129 1 109.50000 418.400000
1214 12470 2757 1 109.50000 418.400000
1214 12470 4130 1 109.50000 418.400000
1214 12470 4131 1 109.50000 418.400000
2757 12470 4130 1 109.50000 418.400000
2757 12470 4131 1 109.50000 418.400000
4130 12470 4131 1 109.50000 418.400000
1809 12471 4132 1 109.50000 418.400000
1809 12471 4133 1 109.50000 418.400000
1809 12471 4134 1 109.50000 418.400000
4132 12471 4133 1 109.50000 418.400000
4132 12471 4134 1 109.50000 418.400000
4133 12471 4134 1 109.50000 418.400000
3168 12472 4135 1 109.50000 418.400000
3168 12472 4136 1 109.50000 418.400000
3168 12472 4137 1 109.50000 418.400000
4135 12472 4136 1 109.50000 418.400000
4135 12472 4137 1 109.50000 418.400000
4136 12472 4137 1 109.50000 418.400000
196 12473 4138 1 109.50000 418.400000
196 12473 4139 1 109.50000 418.400000
196 12473 4140 1 109.50000 418.400000
4138 12473 4139 1 109.50000 418.400000
4138 12473 4140 1 109.50000 418.400000
4139 12473 4140 1 109.50000 418.400000
4141 12474 4142 1 109.50000 418.400000
4141 12474 4143 1 109.50000 418.400000
4141 12474 4144 1 109.50000 418.400000
4142 12474 4143 1 109.50000 418.400000
4142 12474 4144 1 109.50000 418.400000
4143 12474 4144 1 109.50000 418.400000
4145 12475 4146 1 109.50000 418.400000
4145 12475 4147 1 109.50000 418.400000
4145 12475 4148 1 109.50000 418.400000
4146 12475 4147 1 109.50000 418.400000
4146 12475 4148 1 109.50000 418.400000
4147 12475 4148 1 109.50000 418.400000
2453 12476 3542 1 109.50000 418.400000
2453 12476 4149 1 109.50000 418.400000
2453 12476 4150 1 109.50000 418.400000
3542 12476 4149 1 109.50000 418.400000
3542 12476 4150 1 109.50000 418.400000
4149 12476 4150 1 109.50000 418.400000
781 12477 4151 1 109.50000 418.400000
781 12477 4152 1 109.50000 418.400000
781 12477 4153 1 109.50000 418.400000
4151 12477 4152 1 109.50000 418.400000
4151 12477 4153 1 109.50000 418.400000
4152 12477 4153 1 109.50000 418.400000
4154 12478 4155 1 109.50000 418.400000
4154 12478 4156 1 109.50000 418.400000
4154 12478 4157 1 109.50000 418.400000
4155 12478 4156 1 109.50000 418.400000
4155 12478 4157 1 109.50000 418.400000
4156 12478 4157 1 109.50000 418.400000
1882 12479 3232 1 109.50000 418.400000
1882 12479 4158 1 109.50000 418.400000
1882 12479 4159 1 109.50000 418.400000
3232 12479 4158 1 109.50000 418.400000
3232 12479 4159 1 109.50000 418.400000
4158 12479 4159 1 109.50000 418.400000
2309 12480 4160 1 109.50000 418.400000
2309 12480 4161 1 109.50000 418.400000
2309 12480 4162 1 109.50000 418.400000
4160 12480 4161 1 109.50000 418.400000
4160 12480 4162 1 109.50000 418.400000
4161 12480 4162 1 109.50000 418.400000
4163 12481 4164 1 109.50000 418.400000
4163 12481 4165 1 109.50000 418.400000
4163 12481 4166 1 109.50000 418.400000
4164 12481 4165 1 109.50000 418.400000
4164 12481 4166 1 109.50000 418.400000
4165 12481 4166 1 109.50000 418.400000
547 12482 4169 1 109.50000 418.400000
547 12482 4170 1 109.50000 418.400000
547 12482 4171 1 109.50000 418.400000
4169 12482 4170 1 109.50000 418.400000
4169 12482 4171 1 109.50000 418.400000
4170 12482 4171 1 109.50000 418.400000
4173 12483 4174 1 109.50000 418.400000
4173 12483 4175 1 109.50000 418.400000
4173 12483 9352 1 109.50000 418.400000
4174 12483 4175 1 109.50000 418.400000
4174 12483 9352 1 109.50000 418.400000
4175 12483 9352 1 109.50000 418.400000
2241 12484 4176 1 109.50000 418.400000
2241 12484 4177 1 109.50000 418.400000
2241 12484 4178 1 109.50000 418.400000
4176 12484 4177 1 109.50000 418.400000
4176 12484 4178 1 109.50000 418.400000
4177 12484 4178 1 109.50000 418.400000
4179 12485 4180 1 109.50000 418.400000
4179 12485 4181 1 109.50000 418.400000
4179 12485 4625 1 109.50000 418.400000
4180 12485 4181 1 109.50000 418.400000
4180 12485 4625 1 109.50000 418.400000
4181 12485 4625 1 109.50000 418.400000
2590 12486 3284 1 109.50000 418.400000
2590 12486 4182 1 109.50000 418.400000
2590 12486 4183 1 109.50000 418.400000
3284 12486 4182 1 109.50000 418.400000
3284 12486 4183 1 109.50000 418.400000
4182 12486 4183 1 109.50000 418.400000
204 12487 2463 1 109.50000 418.400000
204 12487 4184 1 109.50000 418.400000
204 12487 4185 1 109.50000 418.400000
2463 12487 4184 1 109.50000 418.400000
2463 12487 4185 1 109.50000 418.400000
4184 12487 4185 1 109.50000 418.400000
4175 12488 4186 1 109.50000 418.400000
4175 12488 4187 1 109.50000 418.400000
4175 12488 4188 1 109.50000 418.400000
4186 12488 4187 1 109.50000 418.400000
4186 12488 4188 1 109.50000 418.400000
4187 12488 4188 1 109.50000 418.400000
3234 12489 3364 1 109.50000 418.400000
3234 12489 4189 1 109.50000 418.400000
3234 12489 4190 1 109.50000 418.400000
3364 12489 4189 1 109.50000 418.400000
3364 12489 4190 1 109.50000 418.400000
4189 12489 4190 1 109.50000 418.400000
3599 12490 4191 1 109.50000 418.400000
3599 12490 4192 1 109.50000 418.400000
3599 12490 4193 1 109.50000 418.400000
4191 12490 4192 1 109.50000 418.400000
4191 12490 4193 1 109.50000 418.400000
4192 12490 4193 1 109.50000 418.400000
4065 12491 4194 1 109.50000 418.400000
4065 12491 4195 1 109.50000 418.400000
4065 12491 4196 1 109.50000 418.400000
4194 12491 4195 1 109.50000 418.400000
4194 12491 4196 1 109.50000 418.400000
4195 12491 4196 1 109.50000 418.400000
4197 12492 4198 1 109.50000 418.400000
4197 12492 4199 1 109.50000 418.400000
4197 12492 4200 1 109.50000 418.400000
4198 12492 4199 1 109.50000 418.400000
4198 12492 4200 1 109.50000 418.400000
4199 12492 4200 1 109.50000 418.400000
4201 12493 4202 1 109.50000 418.400000
4201 12493 4203 1 109.50000 418.400000
4201 12493 4204 1 109.50000 418.400000
4202 12493 4203 1 109.50000 418.400000
4202 12493 4204 1 109.50000 418.400000
4203 12493 4204 1 109.50000 418.400000
1223 12494 4205 1 109.50000 418.400000
1223 12494 4206 1 109.50000 418.400000
1223 12494 4207 1 109.50000 418.400000
4205 12494 4206 1 109.50000 418.400000
4205 12494 4207 1 109.50000 418.400000
4206 12494 4207 1 109.50000 418.400000
4210 12495 4211 1 109.50000 418.400000
4210 12495 4212 1 109.50000 418.400000
4210 12495 6234 1 109.50000 418.400000
4211 12495 4212 1 109.50000 418.400000
4211 12495 6234 1 109.50000 418.400000
4212 12495 6234 1 109.50000 418.400000
4213 12496 4214 1 109.50000 418.400000
4213 12496 4215 1 109.50000 418.400000
4213 12496 4216 1 109.50000 418.400000
4214 12496 4215 1 109.50000 418.400000
4214 12496 4216 1 109.50000 418.400000
4215 12496 4216 1 109.50000 418.400000
4217 12497 4218 1 109.50000 418.400000
4217 12497 4219 1 109.50000 418.400000
4217 12497 4220 1 109.50000 418.400000
4218 12497 4219 1 109.50000 418.400000
4218 12497 4220 1 109.50000 418.400000
4219 12497 4220 1 109.50000 418.400000
4221 12498 4222 1 109.50000 418.400000
4221 12498 4223 1 109.50000 418.400000
4221 12498 4224 1 109.50000 418.400000
4222 12498 4223 1 109.50000 418.400000
4222 12498 4224 1 109.50000 418.400000
4223 12498 4224 1 109.50000 418.400000
4225 12499 4226 1 109.50000 418.400000
4225 12499 4227 1 109.50000 418.400000
4225 12499 4228 1 109.50000 418.400000
4226 12499 4227 1 109.50000 418.400000
4226 12499 4228 1 109.50000 418.400000
4227 12499 4228 1 109.50000 418.400000
4229 12500 4230 1 109.50000 418.400000
4229 12500 4231 1 109.50000 418.400000
4229 12500 7658 1 109.50000 418.400000
4230 12500 4231 1 109.50000 418.400000
4230 12500 7658 1 109.50000 418.400000
4231 12500 7658 1 109.50000 418.400000
4232 12501 4233 1 109.50000 418.400000
4232 12501 4234 1 109.50000 418.400000
4232 12501 4235 1 109.50000 418.400000
4233 12501 4234 1 109.50000 418.400000
4233 12501 4235 1 109.50000 418.400000
4234 12501 4235 1 109.50000 418.400000
1699 12502 4236 1 109.50000 418.400000
1699 12502 11201 1 109.50000 418.400000
1699 12502 11285 1 109.50000 418.400000
4236 12502 11201 1 109.50000 418.400000
4236 12502 11285 1 109.50000 418.400000
11201 12502 11285 1 109.50000 418.400000
4237 12503 4238 1 109.50000 418.400000
4237 12503 4239 1 109.50000 418.400000
4237 12503 4240 1 109.50000 418.400000
4238 12503 4239 1 109.50000 418.400000
4238 12503 4240 1 109.50000 418.400000
4239 12503 4240 1 109.50000 418.400000
4244 12504 4245 1 109.50000 418.400000
4244 12504 4246 1 109.50000 418.400000
4244 12504 4247 1 109.50000 418.400000
4245 12504 4246 1 109.50000 418.400000
4245 12504 4247 1 109.50000 418.400000
4246 12504 4247 1 109.50000 418.400000
4248 12505 4249 1 109.50000 418.400000
4248 12505 4250 1 109.50000 418.400000
4248 12505 4251 1 109.50000 418.400000
4249 12505 4250 1 109.50000 418.400000
4249 12505 4251 1 109.50000 418.400000
4250 12505 4251 1 109.50000 418.400000
704 12506 4252 1 109.50000 418.400000
704 12506 4253 1 109.50000 418.400000
704 12506 4254 1 109.50000 418.400000
4252 12506 4253 1 109.50000 418.400000
4252 12506 4254 1 109.50000 418.400000
4253 12506 4254 1 109.50000 418.400000
4255 12507 4256 1 109.50000 418.400000
4255 12507 4257 1 109.50000 418.400000
4255 12507 4258 1 109.50000 418.400000
4256 12507 4257 1 109.50000 418.400000
4256 12507 4258 1 109.50000 418.400000
4257 12507 4258 1 109.50000 418.400000
1848 12508 4259 1 109.50000 418.400000
1848 12508 4260 1 109.50000 418.400000
1848 12508 4261 1 109.50000 418.400000
4259 12508 4260 1 109.50000 418.400000
4259 12508 4261 1 109.50000 418.400000
4260 12508 4261 1 109.50000 418.400000
4262 12509 4263 1 109.50000 418.400000
4262 12509 4264 1 109.50000 418.400000
4262 12509 4265 1 109.50000 418.400000
4263 12509 4264 1 109.50000 418.400000
4263 12509 4265 1 109.50000 418.400000
4264 12509 4265 1 109.50000 418.400000
4266 12510 4267 1 109.50000 418.400000
4266 12510 4268 1 109.50000 418.400000
4266 12510 4269 1 109.50000 418.400000
4267 12510 4268 1 109.50000 418.400000
4267 12510 4269 1 109.50000 418.400000
4268 12510 4269 1 109.50000 418.400000
3108 12511 3893 1 109.50000 418.400000
3108 12511 4270 1 109.50000 418.400000
3108 12511 4271 1 109.50000 418.400000
3893 12511 4270 1 109.50000 418.400000
3893 12511 4271 1 109.50000 418.400000
4270 12511 4271 1 109.50000 418.400000
4272 12512 4273 1 109.50000 418.400000
4272 12512 4274 1 109.50000 418.400000
4272 12512 4275 1 109.50000 418.400000
4273 12512 4274 1 109.50000 418.400000
4273 12512 4275 1 109.50000 418.400000
4274 12512 4275 1 109.50000 418.400000
1460 12513 3687 1 109.50000 418.400000
1460 12513 4276 1 109.50000 418.400000
1460 12513 4277 1 109.50000 418.400000
3687 12513 4276 1 109.50000 418.400000
3687 12513 4277 1 109.50000 418.400000
4276 12513 4277 1 109.50000 418.400000
4278 12514 4279 1 109.50000 418.400000
4278 12514 4280 1 109.50000 418.400000
4278 12514 4281 1 109.50000 418.400000
4279 12514 4280 1 109.50000 418.400000
4279 12514 4281 1 109.50000 418.400000
4280 12514 4281 1 109.50000 418.400000
363 12515 1544 1 109.50000 418.400000
363 12515 4282 1 109.50000 418.400000
363 12515 4283 1 109.50000 418.400000
1544 12515 4282 1 109.50000 418.400000
1544 12515 4283 1 109.50000 418.400000
4282 12515 4283 1 109.50000 418.400000
3396 12516 4284 1 109.50000 418.400000
3396 12516 4286 1 109.50000 418.400000
3396 12516 10038 1 109.50000 418.400000
4284 12516 4286 1 109.50000 418.400000
4284 12516 10038 1 109.50000 418.400000
4286 12516 10038 1 109.50000 418.400000
4272 12517 4287 1 109.50000 418.400000
4272 12517 4288 1 109.50000 418.400000
4272 12517 4289 1 109.50000 418.400000
4287 12517 4288 1 109.50000 418.400000
4287 12517 4289 1 109.50000 418.400000
4288 12517 4289 1 109.50000 418.400000
4290 12518 4291 1 109.50000 418.400000
4290 12518 4292 1 109.50000 418.400000
4290 12518 4293 1 109.50000 418.400000
4291 12518 4292 1 109.50000 418.400000
4291 12518 4293 1 109.50000 418.400000
4292 12518 4293 1 109.50000 418.400000
658 12519 660 1 109.50000 418.400000
658 12519 4294 1 109.50000 418.400000
658 12519 4296 1 109.50000 418.400000
660 12519 4294 1 109.50000 418.400000
660 12519 4296 1 109.50000 418.400000
4294 12519 4296 1 109.50000 418.400000
4075 12520 4297 1 109.50000 418.400000
4075 12520 4298 1 109.50000 418.400000
4075 12520 11324 1 109.50000 418.400000
4297 12520 4298 1 109.50000 418.400000
4297 12520 11324 1 109.50000 418.400000
4298 12520 11324 1 109.50000 418.400000
3164 12521 4299 1 109.50000 418.400000
3164 12521 4300 1 109.50000 418.400000
3164 12521 4301 1 109.50000 418.400000
4299 12521 4300 1 109.50000 418.400000
4299 12521 4301 1 109.50000 418.400000
4300 12521 4301 1 109.50000 418.400000
559 12522 4302 1 109.50000 418.400000
559 12522 4304 1 109.50000 418.400000
559 12522 4560 1 109.50000 418.400000
4302 12522 4304 1 109.50000 418.400000
4302 12522 4560 1 109.50000 418.400000
4304 12522 4560 1 109.50000 418.400000
4305 12523 4306 1 109.50000 418.400000
4305 12523 4307 1 109.50000 418.400000
4305 12523 4308 1 109.50000 418.400000
4306 12523 4307 1 109.50000 418.400000
4306 12523 4308 1 109.50000 418.400000
4307 12523 4308 1 109.50000 418.400000
2836 12524 4309 1 109.50000 418.400000
2836 12524 4310 1 109.50000 418.400000
2836 12524 4311 1 109.50000 418.400000
4309 12524 4310 1 109.50000 418.400000
4309 12524 4311 1 109.50000 418.400000
4310 12524 4311 1 109.50000 418.400000
17 12525 4137 1 109.50000 418.400000
17 12525 4312 1 109.50000 418.400000
17 12525 4313 1 109.50000 418.400000
4137 12525 4312 1 109.50000 418.400000
4137 12525 4313 1 109.50000 418.400000
4312 12525 4313 1 109.50000 418.400000
740 12526 4314 1 109.50000 418.400000
740 12526 4315 1 109.50000 418.400000
740 12526 4316 1 109.50000 418.400000
4314 12526 4315 1 109.50000 418.400000
4314 12526 4316 1 109.50000 418.400000
4315 12526 4316 1 109.50000 418.400000
4317 12527 4318 1 109.50000 418.400000
4317 12527 4319 1 109.50000 418.400000
4317 12527 7759 1 109.50000 418.400000
4318 12527 4319 1 109.50000 418.400000
4318 12527 7759 1 109.50000 418.400000
4319 12527 7759 1 109.50000 418.400000
4321 12528 4322 1 109.50000 418.400000
4321 12528 4323 1 109.50000 418.400000
4321 12528 4324 1 109.50000 418.400000
4322 12528 4323 1 109.50000 418.400000
4322 12528 4324 1 109.50000 418.400000
4323 12528 4324 1 109.50000 418.400000
4325 12529 4326 1 109.50000 418.400000
4325 12529 11202 1 109.50000 418.400000
4325 12529 11331 1 109.50000 418.400000
4326 12529 11202 1 109.50000 418.400000
4326 12529 11331 1 109.50000 418.400000
11202 12529 11331 1 109.50000 418.400000
4327 12530 4328 1 109.50000 418.400000
4327 12530 4329 1 109.50000 418.400000
4327 12530 4330 1 109.50000 418.400000
4328 12530 4329 1 109.50000 418.400000
4328 12530 4330 1 109.50000 418.400000
4329 12530 4330 1 109.50000 418.400000
4331 12531 4332 1 109.50000 418.400000
4331 12531 4333 1 109.50000 418.400000
4331 12531 4334 1 109.50000 418.400000
4332 12531 4333 1 109.50000 418.400000
4332 12531 4334 1 109.50000 418.400000
4333 12531 4334 1 109.50000 418.400000
3556 12532 4335 1 109.50000 418.400000
3556 12532 4336 1 109.50000 418.400000
3556 12532 4337 1 109.50000 418.400000
4335 12532 4336 1 109.50000 418.400000
4335 12532 4337 1 109.50000 418.400000
4336 12532 4337 1 109.50000 418.400000
4341 12533 4342 1 109.50000 418.400000
4341 12533 4343 1 109.50000 418.400000
4341 12533 4344 1 109.50000 418.400000
4342 12533 4343 1 109.50000 418.400000
4342 12533 4344 1 109.50000 418.400000
4343 12533 4344 1 109.50000 418.400000
4345 12534 4346 1 109.50000 418.400000
4345 12534 4347 1 109.50000 418.400000
4345 12534 4348 1 109.50000 418.400000
4346 12534 4347 1 109.50000 418.400000
4346 12534 4348 1 109.50000 418.400000
4347 12534 4348 1 109.50000 418.400000
4349 12535 4350 1 109.50000 418.400000
4349 12535 4351 1 109.50000 418.400000
4349 12535 4352 1 109.50000 418.400000
4350 12535 4351 1 109.50000 418.400000
4350 12535 4352 1 109.50000 418.400000
4351 12535 4352 1 109.50000 418.400000
4353 12536 4354 1 109.50000 418.400000
4353 12536 4355 1 109.50000 418.400000
4353 12536 4356 1 109.50000 418.400000
4354 12536 4355 1 109.50000 418.400000
4354 12536 4356 1 109.50000 418.400000
4355 12536 4356 1 109.50000 418.400000
4357 12537 4358 1 109.50000 418.400000
4357 12537 4359 1 109.50000 418.400000
4357 12537 4360 1 109.50000 418.400000
4358 12537 4359 1 109.50000 418.400000
4358 12537 4360 1 109.50000 418.400000
4359 12537 4360 1 109.50000 418.400000
4361 12538 4362 1 109.50000 418.400000
4361 12538 4363 1 109.50000 418.400000
4361 12538 4364 1 109.50000 418.400000
4362 12538 4363 1 109.50000 418.400000
4362 12538 4364 1 109.50000 418.400000
4363 12538 4364 1 109.50000 418.400000
4365 12539 4366 1 109.50000 418.400000
4365 12539 4367 1 109.50000 418.400000
4365 12539 4368 1 109.50000 418.400000
4366 12539 4367 1 109.50000 418.400000
4366 12539 4368 1 109.50000 418.400000
4367 12539 4368 1 109.50000 418.400000
757 12540 4369 1 109.50000 418.400000
757 12540 4370 1 109.50000 418.400000
757 12540 4371 1 109.50000 418.400000
4369 12540 4370 1 109.50000 418.400000
4369 12540 4371 1 109.50000 418.400000
4370 12540 4371 1 109.50000 418.400000
114 12541 4143 1 109.50000 418.400000
114 12541 4372 1 109.50000 418.400000
114 12541 4373 1 109.50000 418.400000
4143 12541 4372 1 109.50000 418.400000
4143 12541 4373 1 109.50000 418.400000
4372 12541 4373 1 109.50000 418.400000
3088 12542 3574 1 109.50000 418.400000
3088 12542 4375 1 109.50000 418.400000
3088 12542 4376 1 109.50000 418.400000
3574 12542 4375 1 109.50000 418.400000
3574 12542 4376 1 109.50000 418.400000
4375 12542 4376 1 109.50000 418.400000
675 12543 4377 1 109.50000 418.400000
675 12543 4378 1 109.50000 418.400000
675 12543 4379 1 109.50000 418.400000
4377 12543 4378 1 109.50000 418.400000
4377 12543 4379 1 109.50000 418.400000
4378 12543 4379 1 109.50000 418.400000
999 12544 3664 1 109.50000 418.400000
999 12544 4380 1 109.50000 418.400000
999 12544 4381 1 109.50000 418.400000
3664 12544 4380 1 109.50000 418.400000
3664 12544 4381 1 109.50000 418.400000
4380 12544 4381 1 109.50000 418.400000
4089 12545 4382 1 109.50000 418.400000
4089 12545 4383 1 109.50000 418.400000
4089 12545 4384 1 109.50000 418.400000
4382 12545 4383 1 109.50000 418.400000
4382 12545 4384 1 109.50000 418.400000
4383 12545 4384 1 109.50000 418.400000
4385 12546 4386 1 109.50000 418.400000
4385 12546 4387 1 109.50000 418.400000
4385 12546 4388 1 109.50000 418.400000
4386 12546 4387 1 109.50000 418.400000
4386 12546 4388 1 109.50000 418.400000
4387 12546 4388 1 109.50000 418.400000
664 12547 2529 1 109.50000 418.400000
664 12547 4389 1 109.50000 418.400000
664 12547 4390 1 109.50000 418.400000
2529 12547 4389 1 109.50000 418.400000
2529 12547 4390 1 109.50000 418.400000
4389 12547 4390 1 109.50000 418.400000
1338 12548 4391 1 109.50000 418.400000
1338 12548 4393 1 109.50000 418.400000
1338 12548 9172 1 109.50000 418.400000
4391 12548 4393 1 109.50000 418.400000
4391 12548 9172 1 109.50000 418.400000
4393 12548 9172 1 109.50000 418.400000
4394 12549 4395 1 109.50000 418.400000
4394 12549 4396 1 109.50000 418.400000
4394 12549 4397 1 109.50000 418.400000
4395 12549 4396 1 109.50000 418.400000
4395 12549 4397 1 109.50000 418.400000
4396 12549 4397 1 109.50000 418.400000
2778 12550 4401 1 109.50000 418.400000
2778 12550 4402 1 109.50000 418.400000
2778 12550 4403 1 109.50000 418.400000
4401 12550 4402 1 109.50000 418.400000
4401 12550 4403 1 109.50000 418.400000
4402 12550 4403 1 109.50000 418.400000
4245 12551 4404 1 109.50000 418.400000
4245 12551 4405 1 109.50000 418.400000
4245 12551 4406 1 109.50000 418.400000
4404 12551 4405 1 109.50000 418.400000
4404 12551 4406 1 109.50000 418.400000
4405 12551 4406 1 109.50000 418.400000
571 12552 4407 1 109.50000 418.400000
571 12552 4408 1 109.50000 418.400000
571 12552 4409 1 109.50000 418.400000
4407 12552 4408 1 109.50000 418.400000
4407 12552 4409 1 109.50000 418.400000
4408 12552 4409 1 109.50000 418.400000
1203 12553 4410 1 109.50000 418.400000
1203 12553 4411 1 109.50000 418.400000
1203 12553 4412 1 109.50000 418.400000
4410 12553 4411 1 109.50000 418.400000
4410 12553 4412 1 109.50000 418.400000
4411 12553 4412 1 109.50000 418.400000
4413 12554 4414 1 109.50000 418.400000
4413 12554 4415 1 109.50000 418.400000
4413 12554 4416 1 109.50000 418.400000
4414 12554 4415 1 109.50000 418.400000
4414 12554 4416 1 109.50000 418.400000
4415 12554 4416 1 109.50000 418.400000
3407 12555 3408 1 109.50000 418.400000
3407 12555 4417 1 109.50000 418.400000
3407 12555 4418 1 109.50000 418.400000
3408 12555 4417 1 109.50000 418.400000
3408 12555 4418 1 109.50000 418.400000
4417 12555 4418 1 109.50000 418.400000
3798 12556 4420 1 109.50000 418.400000
3798 12556 4421 1 109.50000 418.400000
3798 12556 4422 1 109.50000 418.400000
4420 12556 4421 1 109.50000 418.400000
4420 12556 4422 1 109.50000 418.400000
4421 12556 4422 1 109.50000 418.400000
2375 12557 4309 1 109.50000 418.400000
2375 12557 4423 1 109.50000 418.400000
2375 12557 4424 1 109.50000 418.400000
4309 12557 4423 1 109.50000 418.400000
4309 12557 4424 1 109.50000 418.400000
4423 12557 4424 1 109.50000 418.400000
1861 12558 4425 1 109.50000 418.400000
1861 12558 4426 1 109.50000 418.400000
1861 12558 4427 1 109.50000 418.400000
4425 12558 4426 1 109.50000 418.400000
4425 12558 4427 1 109.50000 418.400000
4426 12558 4427 1 109.50000 418.400000
4428 12559 4429 1 109.50000 418.400000
4428 12559 4430 1 109.50000 418.400000
4428 12559 4431 1 109.50000 418.400000
4429 12559 4430 1 109.50000 418.400000
4429 12559 4431 1 109.50000 418.400000
4430 12559 4431 1 109.50000 418.400000
2217 12560 4435 1 109.50000 418.400000
2217 12560 11203 1 109.50000 418.400000
2217 12560 11272 1 109.50000 418.400000
4435 12560 11203 1 109.50000 418.400000
4435 12560 11272 1 109.50000 418.400000
11203 12560 11272 1 109.50000 418.400000
4436 12561 4437 1 109.50000 418.400000
4436 12561 4438 1 109.50000 418.400000
4436 12561 4439 1 109.50000 418.400000
4437 12561 4438 1 109.50000 418.400000
4437 12561 4439 1 109.50000 418.400000
4438 12561 4439 1 109.50000 418.400000
1833 12562 3721 1 109.50000 418.400000
1833 12562 4440 1 109.50000 418.400000
1833 12562 4441 1 109.50000 418.400000
3721 12562 4440 1 109.50000 418.400000
3721 12562 4441 1 109.50000 418.400000
4440 12562 4441 1 109.50000 418.400000
4442 12563 4443 1 109.50000 418.400000
4442 12563 4444 1 109.50000 418.400000
4442 12563 4445 1 109.50000 418.400000
4443 12563 4444 1 109.50000 418.400000
4443 12563 4445 1 109.50000 418.400000
4444 12563 4445 1 109.50000 418.400000
4446 12564 4447 1 109.50000 418.400000
4446 12564 4448 1 109.50000 418.400000
4446 12564 4449 1 109.50000 418.400000
4447 12564 4448 1 109.50000 418.400000
4447 12564 4449 1 109.50000 418.400000
4448 12564 4449 1 109.50000 418.400000
2184 12565 4450 1 109.50000 418.400000
2184 12565 4451 1 109.50000 418.400000
2184 12565 4452 1 109.50000 418.400000
4450 12565 4451 1 109.50000 418.400000
4450 12565 4452 1 109.50000 418.400000
4451 12565 4452 1 109.50000 418.400000
2483 12566 4453 1 109.50000 418.400000
2483 12566 4454 1 109.50000 418.400000
2483 12566 4455 1 109.50000 418.400000
4453 12566 4454 1 109.50000 418.400000
4453 12566 4455 1 109.50000 418.400000
4454 12566 4455 1 109.50000 418.400000
1015 12567 4456 1 109.50000 418.400000
1015 12567 4457 1 109.50000 418.400000
1015 12567 4458 1 109.50000 418.400000
4456 12567 4457 1 109.50000 418.400000
4456 12567 4458 1 109.50000 418.400000
4457 12567 4458 1 109.50000 418.400000
1055 12568 4285 1 109.50000 418.400000
1055 12568 4459 1 109.50000 418.400000
1055 12568 4460 1 109.50000 418.400000
4285 12568 4459 1 109.50000 418.400000
4285 12568 4460 1 109.50000 418.400000
4459 12568 4460 1 109.50000 418.400000
2487 12569 4461 1 109.50000 418.400000
2487 12569 4462 1 109.50000 418.400000
2487 12569 4463 1 109.50000 418.400000
4461 12569 4462 1 109.50000 418.400000
4461 12569 4463 1 109.50000 418.400000
4462 12569 4463 1 109.50000 418.400000
3350 12570 4464 1 109.50000 418.400000
3350 12570 4465 1 109.50000 418.400000
3350 12570 10518 1 109.50000 418.400000
4464 12570 4465 1 109.50000 418.400000
4464 12570 10518 1 109.50000 418.400000
4465 12570 10518 1 109.50000 418.400000
3271 12571 4466 1 109.50000 418.400000
3271 12571 4467 1 109.50000 418.400000
3271 12571 4468 1 109.50000 418.400000
4466 12571 4467 1 109.50000 418.400000
4466 12571 4468 1 109.50000 418.400000
4467 12571 4468 1 109.50000 418.400000
4469 12572 4470 1 109.50000 418.400000
4469 12572 4471 1 109.50000 418.400000
4469 12572 4472 1 109.50000 418.400000
4470 12572 4471 1 109.50000 418.400000
4470 12572 4472 1 109.50000 418.400000
4471 12572 4472 1 109.50000 418.400000
310 12573 4473 1 109.50000 418.400000
310 12573 4474 1 109.50000 418.400000
310 12573 4475 1 109.50000 418.400000
4473 12573 4474 1 109.50000 418.400000
4473 12573 4475 1 109.50000 418.400000
4474 12573 4475 1 109.50000 418.400000
4476 12574 4477 1 109.50000 418.400000
4476 12574 4478 1 109.50000 418.400000
4476 12574 11292 1 109.50000 418.400000
4477 12574 4478 1 109.50000 418.400000
4477 12574 11292 1 109.50000 418.400000
4478 12574 11292 1 109.50000 418.400000
4482 12575 4483 1 109.50000 418.400000
4482 12575 4484 1 109.50000 418.400000
4482 12575 4485 1 109.50000 418.400000
4483 12575 4484 1 109.50000 418.400000
4483 12575 4485 1 109.50000 418.400000
4484 12575 4485 1 109.50000 418.400000
4486 12576 4487 1 109.50000 418.400000
4486 12576 4488 1 109.50000 418.400000
4486 12576 4489 1 109.50000 418.400000
4487 12576 4488 1 109.50000 418.400000
4487 12576 4489 1 109.50000 418.400000
4488 12576 4489 1 109.50000 418.400000
4490 12577 4491 1 109.50000 418.400000
4490 12577 4492 1 109.50000 418.400000
4490 12577 4493 1 109.50000 418.400000
4491 12577 4492 1 109.50000 418.400000
4491 12577 4493 1 109.50000 418.400000
4492 12577 4493 1 109.50000 418.400000
4494 12578 4496 1 109.50000 418.400000
4494 12578 4497 1 109.50000 418.400000
4494 12578 9510 1 109.50000 418.400000
4496 12578 4497 1 109.50000 418.400000
4496 12578 9510 1 109.50000 418.400000
4497 12578 9510 1 109.50000 418.400000
893 12579 4498 1 109.50000 418.400000
893 12579 4499 1 109.50000 418.400000
893 12579 4500 1 109.50000 418.400000
4498 12579 4499 1 109.50000 418.400000
4498 12579 4500 1 109.50000 418.400000
4499 12579 4500 1 109.50000 418.400000
2160 12580 4501 1 109.50000 418.400000
2160 12580 4502 1 109.50000 418.400000
2160 12580 4503 1 109.50000 418.400000
4501 12580 4502 1 109.50000 418.400000
4501 12580 4503 1 109.50000 418.400000
4502 12580 4503 1 109.50000 418.400000
3266 12581 4504 1 109.50000 418.400000
3266 12581 4505 1 109.50000 418.400000
3266 12581 4506 1 109.50000 418.400000
4504 12581 4505 1 109.50000 418.400000
4504 12581 4506 1 109.50000 418.400000
4505 12581 4506 1 109.50000 418.400000
2879 12582 3961 1 109.50000 418.400000
2879 12582 4507 1 109.50000 418.400000
2879 12582 4508 1 109.50000 418.400000
3961 12582 4507 1 109.50000 418.400000
3961 12582 4508 1 109.50000 418.400000
4507 12582 4508 1 109.50000 418.400000
4518 12583 4519 1 109.50000 418.400000
4518 12583 4520 1 109.50000 418.400000
4518 12583 4521 1 109.50000 418.400000
4519 12583 4520 1 109.50000 418.400000
4519 12583 4521 1 109.50000 418.400000
4520 12583 4521 1 109.50000 418.400000
529 12584 2344 1 109.50000 418.400000
529 12584 4522 1 109.50000 418.400000
529 12584 4523 1 109.50000 418.400000
2344 12584 4522 1 109.50000 418.400000
2344 12584 4523 1 109.50000 418.400000
4522 12584 4523 1 109.50000 418.400000
2214 12585 3701 1 109.50000 418.400000
2214 12585 4524 1 109.50000 418.400000
2214 12585 4525 1 109.50000 418.400000
3701 12585 4524 1 109.50000 418.400000
3701 12585 4525 1 109.50000 418.400000
4524 12585 4525 1 109.50000 418.400000
4526 12586 4527 1 109.50000 418.400000
4526 12586 4528 1 109.50000 418.400000
4526 12586 4529 1 109.50000 418.400000
4527 12586 4528 1 109.50000 418.400000
4527 12586 4529 1 109.50000 418.400000
4528 12586 4529 1 109.50000 418.400000
796 12587 4530 1 109.50000 418.400000
796 12587 9194 1 109.50000 418.400000
796 12587 11239 1 109.50000 418.400000
4530 12587 9194 1 109.50000 418.400000
4530 12587 11239 1 109.50000 418.400000
9194 12587 11239 1 109.50000 418.400000
4371 12588 4531 1 109.50000 418.400000
4371 12588 4532 1 109.50000 418.400000
4371 12588 4533 1 109.50000 418.400000
4531 12588 4532 1 109.50000 418.400000
4531 12588 4533 1 109.50000 418.400000
4532 12588 4533 1 109.50000 418.400000
4534 12589 4535 1 109.50000 418.400000
4534 12589 11207 1 109.50000 418.400000
4534 12589 11318 1 109.50000 418.400000
4535 12589 11207 1 109.50000 418.400000
4535 12589 11318 1 109.50000 418.400000
11207 12589 11318 1 109.50000 418.400000
12 12590 4536 1 109.50000 418.400000
12 12590 4537 1 109.50000 418.400000
12 12590 4538 1 109.50000 418.400000
4536 12590 4537 1 109.50000 418.400000
4536 12590 4538 1 109.50000 418.400000
4537 12590 4538 1 109.50000 418.400000
147 12591 4539 1 109.50000 418.400000
147 12591 11208 1 109.50000 418.400000
147 12591 11213 1 109.50000 418.400000
4539 12591 11208 1 109.50000 418.400000
4539 12591 11213 1 109.50000 418.400000
11208 12591 11213 1 109.50000 418.400000
3231 12592 4540 1 109.50000 418.400000
3231 12592 4541 1 109.50000 418.400000
3231 12592 4542 1 109.50000 418.400000
4540 12592 4541 1 109.50000 418.400000
4540 12592 4542 1 109.50000 418.400000
4541 12592 4542 1 109.50000 418.400000
3759 12593 4543 1 109.50000 418.400000
3759 12593 4544 1 109.50000 418.400000
3759 12593 4545 1 109.50000 418.400000
4543 12593 4544 1 109.50000 418.400000
4543 12593 4545 1 109.50000 418.400000
4544 12593 4545 1 109.50000 418.400000
4546 12594 4547 1 109.50000 418.400000
4546 12594 4548 1 109.50000 418.400000
4546 12594 4549 1 109.50000 418.400000
4547 12594 4548 1 109.50000 418.400000
4547 12594 4549 1 109.50000 418.400000
4548 12594 4549 1 109.50000 418.400000
2289 12595 4550 1 109.50000 418.400000
2289 12595 4551 1 109.50000 418.400000
2289 12595 4552 1 109.50000 418.400000
4550 12595 4551 1 109.50000 418.400000
4550 12595 4552 1 109.50000 418.400000
4551 12595 4552 1 109.50000 418.400000
4554 12596 4555 1 109.50000 418.400000
4554 12596 4556 1 109.50000 418.400000
4554 12596 9056 1 109.50000 418.400000
4555 12596 4556 1 109.50000 418.400000
4555 12596 9056 1 109.50000 418.400000
4556 12596 9056 1 109.50000 418.400000
2614 12597 4557 1 109.50000 418.400000
2614 12597 4558 1 109.50000 418.400000
2614 12597 4559 1 109.50000 418.400000
4557 12597 4558 1 109.50000 418.400000
4557 12597 4559 1 109.50000 418.400000
4558 12597 4559 1 109.50000 418.400000
4302 12598 4303 1 109.50000 418.400000
4302 12598 4561 1 109.50000 418.400000
4302 12598 4562 1 109.50000 418.400000
4303 12598 4561 1 109.50000 418.400000
4303 12598 4562 1 109.50000 418.400000
4561 12598 4562 1 109.50000 418.400000
394 12599 4462 1 109.50000 418.400000
394 12599 4563 1 109.50000 418.400000
394 12599 4564 1 109.50000 418.400000
4462 12599 4563 1 109.50000 418.400000
4462 12599 4564 1 109.50000 418.400000
4563 12599 4564 1 109.50000 418.400000
415 12600 3031 1 109.50000 418.400000
415 12600 4565 1 109.50000 418.400000
415 12600 4566 1 109.50000 418.400000
3031 12600 4565 1 109.50000 418.400000
3031 12600 4566 1 109.50000 418.400000
4565 12600 4566 1 109.50000 418.400000
754 12601 2128 1 109.50000 418.400000
754 12601 2917 1 109.50000 418.400000
754 12601 4567 1 109.50000 418.400000
2128 12601 2917 1 109.50000 418.400000
2128 12601 4567 1 109.50000 418.400000
2917 12601 4567 1 109.50000 418.400000
4568 12602 4569 1 109.50000 418.400000
4568 12602 4570 1 109.50000 418.400000
4568 12602 4571 1 109.50000 418.400000
4569 12602 4570 1 109.50000 418.400000
4569 12602 4571 1 109.50000 418.400000
4570 12602 4571 1 109.50000 418.400000
3517 12603 4572 1 109.50000 418.400000
3517 12603 4573 1 109.50000 418.400000
3517 12603 4574 1 109.50000 418.400000
4572 12603 4573 1 109.50000 418.400000
4572 12603 4574 1 109.50000 418.400000
4573 12603 4574 1 109.50000 418.400000
4575 12604 4576 1 109.50000 418.400000
4575 12604 4577 1 109.50000 418.400000
4575 12604 4578 1 109.50000 418.400000
4576 12604 4577 1 109.50000 418.400000
4576 12604 4578 1 109.50000 418.400000
4577 12604 4578 1 109.50000 418.400000
4579 12605 4580 1 109.50000 418.400000
4579 12605 4581 1 109.50000 418.400000
4579 12605 4582 1 109.50000 418.400000
4580 12605 4581 1 109.50000 418.400000
4580 12605 4582 1 109.50000 418.400000
4581 12605 4582 1 109.50000 418.400000
2219 12606 3346 1 109.50000 418.400000
2219 12606 4583 1 109.50000 418.400000
2219 12606 8090 1 109.50000 418.400000
3346 12606 4583 1 109.50000 418.400000
3346 12606 8090 1 109.50000 418.400000
4583 12606 8090 1 109.50000 418.400000
2454 12607 2843 1 109.50000 418.400000
2454 12607 4364 1 109.50000 418.400000
2454 12607 4585 1 109.50000 418.400000
2843 12607 4364 1 109.50000 418.400000
2843 12607 4585 1 109.50000 418.400000
4364 12607 4585 1 109.50000 418.400000
4591 12608 9469 1 109.50000 418.400000
4591 12608 10531 1 109.50000 418.400000
4591 12608 10532 1 109.50000 418.400000
9469 12608 10531 1 109.50000 418.400000
9469 12608 10532 1 109.50000 418.400000
10531 12608 10532 1 109.50000 418.400000
2864 12609 4594 1 109.50000 418.400000
2864 12609 4595 1 109.50000 418.400000
2864 12609 10285 1 109.50000 418.400000
4594 12609 4595 1 109.50000 418.400000
4594 12609 10285 1 109.50000 418.400000
4595 12609 10285 1 109.50000 418.400000
120 12610 4596 1 109.50000 418.400000
120 12610 4597 1 109.50000 418.400000
120 12610 4598 1 109.50000 418.400000
4596 12610 4597 1 109.50000 418.400000
4596 12610 4598 1 109.50000 418.400000
4597 12610 4598 1 109.50000 418.400000
4599 12611 4600 1 109.50000 418.400000
4599 12611 4601 1 109.50000 418.400000
4599 12611 4602 1 109.50000 418.400000
4600 12611 4601 1 109.50000 418.400000
4600 12611 4602 1 109.50000 418.400000
4601 12611 4602 1 109.50000 418.400000
399 12612 1946 1 109.50000 418.400000
399 12612 4605 1 109.50000 418.400000
399 12612 4606 1 109.50000 418.400000
1946 12612 4605 1 109.50000 418.400000
1946 12612 4606 1 109.50000 418.400000
4605 12612 4606 1 109.50000 418.400000
4609 12613 4610 1 109.50000 418.400000
4609 12613 4611 1 109.50000 418.400000
4609 12613 4612 1 109.50000 418.400000
4610 12613 4611 1 109.50000 418.400000
4610 12613 4612 1 109.50000 418.400000
4611 12613 4612 1 109.50000 418.400000
4613 12614 4614 1 109.50000 418.400000
4613 12614 4615 1 109.50000 418.400000
4613 12614 4616 1 109.50000 418.400000
4614 12614 4615 1 109.50000 418.400000
4614 12614 4616 1 109.50000 418.400000
4615 12614 4616 1 109.50000 418.400000
140 12615 4617 1 109.50000 418.400000
140 12615 4618 1 109.50000 418.400000
140 12615 4619 1 109.50000 418.400000
4617 12615 4618 1 109.50000 418.400000
4617 12615 4619 1 109.50000 418.400000
4618 12615 4619 1 109.50000 418.400000
2542 12616 4620 1 109.50000 418.400000
2542 12616 4621 1 109.50000 418.400000
2542 12616 4622 1 109.50000 418.400000
4620 12616 4621 1 109.50000 418.400000
4620 12616 4622 1 109.50000 418.400000
4621 12616 4622 1 109.50000 418.400000
753 12617 4179 1 109.50000 418.400000
753 12617 4626 1 109.50000 418.400000
753 12617 4627 1 109.50000 418.400000
4179 12617 4626 1 109.50000 418.400000
4179 12617 4627 1 109.50000 418.400000
4626 12617 4627 1 109.50000 418.400000
1393 12618 4420 1 109.50000 418.400000
1393 12618 4628 1 109.50000 418.400000
1393 12618 4629 1 109.50000 418.400000
4420 12618 4628 1 109.50000 418.400000
4420 12618 4629 1 109.50000 418.400000
4628 12618 4629 1 109.50000 418.400000
4630 12619 4631 1 109.50000 418.400000
4630 12619 4632 1 109.50000 418.400000
4630 12619 4633 1 109.50000 418.400000
4631 12619 4632 1 109.50000 418.400000
4631 12619 4633 1 109.50000 418.400000
4632 12619 4633 1 109.50000 418.400000
1847 12620 3783 1 109.50000 418.400000
1847 12620 4634 1 109.50000 418.400000
1847 12620 4635 1 109.50000 418.400000
3783 12620 4634 1 109.50000 418.400000
3783 12620 4635 1 109.50000 418.400000
4634 12620 4635 1 109.50000 418.400000
186 12621 543 1 109.50000 418.400000
186 12621 544 1 109.50000 418.400000
186 12621 545 1 109.50000 418.400000
543 12621 544 1 109.50000 418.400000
543 12621 545 1 109.50000 418.400000
544 12621 545 1 109.50000 418.400000
4641 12622 4642 1 109.50000 418.400000
4641 12622 4643 1 109.50000 418.400000
4641 12622 4644 1 109.50000 418.400000
4642 12622 4643 1 109.50000 418.400000
4642 12622 4644 1 109.50000 418.400000
4643 12622 4644 1 109.50000 418.400000
1801 12623 4645 1 109.50000 418.400000
1801 12623 4646 1 109.50000 418.400000
1801 12623 4647 1 109.50000 418.400000
4645 12623 4646 1 109.50000 418.400000
4645 12623 4647 1 109.50000 418.400000
4646 12623 4647 1 109.50000 418.400000
3623 12624 4648 1 109.50000 418.400000
3623 12624 4649 1 109.50000 418.400000
3623 12624 4650 1 109.50000 418.400000
4648 12624 4649 1 109.50000 418.400000
4648 12624 4650 1 109.50000 418.400000
4649 12624 4650 1 109.50000 418.400000
4046 12625 4651 1 109.50000 418.400000
4046 12625 4652 1 109.50000 418.400000
4046 12625 4653 1 109.50000 418.400000
4651 12625 4652 1 109.50000 418.400000
4651 12625 4653 1 109.50000 418.400000
4652 12625 4653 1 109.50000 418.400000
4654 12626 4655 1 109.50000 418.400000
4654 12626 4656 1 109.50000 418.400000
4654 12626 4657 1 109.50000 418.400000
4655 12626 4656 1 109.50000 418.400000
4655 12626 4657 1 109.50000 418.400000
4656 12626 4657 1 109.50000 418.400000
2561 12627 2745 1 109.50000 418.400000
2561 12627 4658 1 109.50000 418.400000
2561 12627 4659 1 109.50000 418.400000
2745 12627 4658 1 109.50000 418.400000
2745 12627 4659 1 109.50000 418.400000
4658 12627 4659 1 109.50000 418.400000
4660 12628 4661 1 109.50000 418.400000
4660 12628 4662 1 109.50000 418.400000
4660 12628 4663 1 109.50000 418.400000
4661 12628 4662 1 109.50000 418.400000
4661 12628 4663 1 109.50000 418.400000
4662 12628 4663 1 109.50000 418.400000
3758 12629 4664 1 109.50000 418.400000
3758 12629 4665 1 109.50000 418.400000
3758 12629 4666 1 109.50000 418.400000
4664 12629 4665 1 109.50000 418.400000
4664 12629 4666 1 109.50000 418.400000
4665 12629 4666 1 109.50000 418.400000
4667 12630 4668 1 109.50000 418.400000
4667 12630 4669 1 109.50000 418.400000
4667 12630 4670 1 109.50000 418.400000
4668 12630 4669 1 109.50000 418.400000
4668 12630 4670 1 109.50000 418.400000
4669 12630 4670 1 109.50000 418.400000
4422 12631 4671 1 109.50000 418.400000
4422 12631 4672 1 109.50000 418.400000
4422 12631 4673 1 109.50000 418.400000
4671 12631 4672 1 109.50000 418.400000
4671 12631 4673 1 109.50000 418.400000
4672 12631 4673 1 109.50000 418.400000
4674 12632 4675 1 109.50000 418.400000
4674 12632 4677 1 109.50000 418.400000
4674 12632 6369 1 109.50000 418.400000
4675 12632 4677 1 109.50000 418.400000
4675 12632 6369 1 109.50000 418.400000
4677 12632 6369 1 109.50000 418.400000
4678 12633 4679 1 109.50000 418.400000
4678 12633 4680 1 109.50000 418.400000
4678 12633 4681 1 109.50000 418.400000
4679 12633 4680 1 109.50000 418.400000
4679 12633 4681 1 109.50000 418.400000
4680 12633 4681 1 109.50000 418.400000
96 12634 2613 1 109.50000 418.400000
96 12634 4682 1 109.50000 418.400000
96 12634 4683 1 109.50000 418.400000
2613 12634 4682 1 109.50000 418.400000
2613 12634 4683 1 109.50000 418.400000
4682 12634 4683 1 109.50000 418.400000
4684 12635 4685 1 109.50000 418.400000
4684 12635 4686 1 109.50000 418.400000
4684 12635 4687 1 109.50000 418.400000
4685 12635 4686 1 109.50000 418.400000
4685 12635 4687 1 109.50000 418.400000
4686 12635 4687 1 109.50000 418.400000
2685 12636 4688 1 109.50000 418.400000
2685 12636 4689 1 109.50000 418.400000
2685 12636 4690 1 109.50000 418.400000
4688 12636 4689 1 109.50000 418.400000
4688 12636 4690 1 109.50000 418.400000
4689 12636 4690 1 109.50000 418.400000
3592 12637 4649 1 109.50000 418.400000
3592 12637 4694 1 109.50000 418.400000
3592 12637 4695 1 109.50000 418.400000
4649 12637 4694 1 109.50000 418.400000
4649 12637 4695 1 109.50000 418.400000
4694 12637 4695 1 109.50000 418.400000
623 12638 2273 1 109.50000 418.400000
623 12638 4696 1 109.50000 418.400000
623 12638 4697 1 109.50000 418.400000
2273 12638 4696 1 109.50000 418.400000
2273 12638 4697 1 109.50000 418.400000
4696 12638 4697 1 109.50000 418.400000
1474 12639 2833 1 109.50000 418.400000
1474 12639 4698 1 109.50000 418.400000
1474 12639 4699 1 109.50000 418.400000
2833 12639 4698 1 109.50000 418.400000
2833 12639 4699 1 109.50000 418.400000
4698 12639 4699 1 109.50000 418.400000
4262 12640 4702 1 109.50000 418.400000
4262 12640 4703 1 109.50000 418.400000
4262 12640 4704 1 109.50000 418.400000
4702 12640 4703 1 109.50000 418.400000
4702 12640 4704 1 109.50000 418.400000
4703 12640 4704 1 109.50000 418.400000
1082 12641 4705 1 109.50000 418.400000
1082 12641 4706 1 109.50000 418.400000
1082 12641 4707 1 109.50000 418.400000
4705 12641 4706 1 109.50000 418.400000
4705 12641 4707 1 109.50000 418.400000
4706 12641 4707 1 109.50000 418.400000
2497 12642 4708 1 109.50000 418.400000
2497 12642 4709 1 109.50000 418.400000
2497 12642 4710 1 109.50000 418.400000
4708 12642 4709 1 109.50000 418.400000
4708 12642 4710 1 109.50000 418.400000
4709 12642 4710 1 109.50000 418.400000
4711 12643 4712 1 109.50000 418.400000
4711 12643 4713 1 109.50000 418.400000
4711 12643 4714 1 109.50000 418.400000
4712 12643 4713 1 109.50000 418.400000
4712 12643 4714 1 109.50000 418.400000
4713 12643 4714 1 109.50000 418.400000
2594 12644 4083 1 109.50000 418.400000
2594 12644 4715 1 109.50000 418.400000
2594 12644 4716 1 109.50000 418.400000
4083 12644 4715 1 109.50000 418.400000
4083 12644 4716 1 109.50000 418.400000
4715 12644 4716 1 109.50000 418.400000
4717 12645 4718 1 109.50000 418.400000
4717 12645 4719 1 109.50000 418.400000
4717 12645 4720 1 109.50000 418.400000
4718 12645 4719 1 109.50000 418.400000
4718 12645 4720 1 109.50000 418.400000
4719 12645 4720 1 109.50000 418.400000
4721 12646 4722 1 109.50000 418.400000
4721 12646 4723 1 109.50000 418.400000
4721 12646 4724 1 109.50000 418.400000
4722 12646 4723 1 109.50000 418.400000
4722 12646 4724 1 109.50000 418.400000
4723 12646 4724 1 109.50000 418.400000
4725 12647 4726 1 109.50000 418.400000
4725 12647 4727 1 109.50000 418.400000
4725 12647 4728 1 109.50000 418.400000
4726 12647 4727 1 109.50000 418.400000
4726 12647 4728 1 109.50000 418.400000
4727 12647 4728 1 109.50000 418.400000
4557 12648 4729 1 109.50000 418.400000
4557 12648 4730 1 109.50000 418.400000
4557 12648 4731 1 109.50000 418.400000
4729 12648 4730 1 109.50000 418.400000
4729 12648 4731 1 109.50000 418.400000
4730 12648 4731 1 109.50000 418.400000
4732 12649 4733 1 109.50000 418.400000
4732 12649 4734 1 109.50000 418.400000
4732 12649 4735 1 109.50000 418.400000
4733 12649 4734 1 109.50000 418.400000
4733 12649 4735 1 109.50000 418.400000
4734 12649 4735 1 109.50000 418.400000
4738 12650 4739 1 109.50000 418.400000
4738 12650 4740 1 109.50000 418.400000
4738 12650 4741 1 109.50000 418.400000
4739 12650 4740 1 109.50000 418.400000
4739 12650 4741 1 109.50000 418.400000
4740 12650 4741 1 109.50000 418.400000
3547 12651 4742 1 109.50000 418.400000
3547 12651 4743 1 109.50000 418.400000
3547 12651 4744 1 109.50000 418.400000
4742 12651 4743 1 109.50000 418.400000
4742 12651 4744 1 109.50000 418.400000
4743 12651 4744 1 109.50000 418.400000
2565 12652 4144 1 109.50000 418.400000
2565 12652 4745 1 109.50000 418.400000
2565 12652 4746 1 109.50000 418.400000
4144 12652 4745 1 109.50000 418.400000
4144 12652 4746 1 109.50000 418.400000
4745 12652 4746 1 109.50000 418.400000
4112 12653 4747 1 109.50000 418.400000
4112 12653 4748 1 109.50000 418.400000
4112 12653 4749 1 109.50000 418.400000
4747 12653 4748 1 109.50000 418.400000
4747 12653 4749 1 109.50000 418.400000
4748 12653 4749 1 109.50000 418.400000
1616 12654 1815 1 109.50000 418.400000
1616 12654 4750 1 109.50000 418.400000
1616 12654 4751 1 109.50000 418.400000
1815 12654 4750 1 109.50000 418.400000
1815 12654 4751 1 109.50000 418.400000
4750 12654 4751 1 109.50000 418.400000
4723 12655 4752 1 109.50000 418.400000
4723 12655 4753 1 109.50000 418.400000
4723 12655 4754 1 109.50000 418.400000
4752 12655 4753 1 109.50000 418.400000
4752 12655 4754 1 109.50000 418.400000
4753 12655 4754 1 109.50000 418.400000
54 12656 4756 1 109.50000 418.400000
54 12656 4757 1 109.50000 418.400000
54 12656 4758 1 109.50000 418.400000
4756 12656 4757 1 109.50000 418.400000
4756 12656 4758 1 109.50000 418.400000
4757 12656 4758 1 109.50000 418.400000
4288 12657 4759 1 109.50000 418.400000
4288 12657 4761 1 109.50000 418.400000
4288 12657 9073 1 109.50000 418.400000
4759 12657 4761 1 109.50000 418.400000
4759 12657 9073 1 109.50000 418.400000
4761 12657 9073 1 109.50000 418.400000
4713 12658 4762 1 109.50000 418.400000
4713 12658 4763 1 109.50000 418.400000
4713 12658 4764 1 109.50000 418.400000
4762 12658 4763 1 109.50000 418.400000
4762 12658 4764 1 109.50000 418.400000
4763 12658 4764 1 109.50000 418.400000
1679 12659 2482 1 109.50000 418.400000
1679 12659 4133 1 109.50000 418.400000
1679 12659 4765 1 109.50000 418.400000
2482 12659 4133 1 109.50000 418.400000
2482 12659 4765 1 109.50000 418.400000
4133 12659 4765 1 109.50000 418.400000
4606 12660 4766 1 109.50000 418.400000
4606 12660 4767 1 109.50000 418.400000
4606 12660 4768 1 109.50000 418.400000
4766 12660 4767 1 109.50000 418.400000
4766 12660 4768 1 109.50000 418.400000
4767 12660 4768 1 109.50000 418.400000
1665 12661 2646 1 109.50000 418.400000
1665 12661 4769 1 109.50000 418.400000
1665 12661 4770 1 109.50000 418.400000
2646 12661 4769 1 109.50000 418.400000
2646 12661 4770 1 109.50000 418.400000
4769 12661 4770 1 109.50000 418.400000
4773 12662 4774 1 109.50000 418.400000
4773 12662 4775 1 109.50000 418.400000
4773 12662 4776 1 109.50000 418.400000
4774 12662 4775 1 109.50000 418.400000
4774 12662 4776 1 109.50000 418.400000
4775 12662 4776 1 109.50000 418.400000
4777 12663 4778 1 109.50000 418.400000
4777 12663 4779 1 109.50000 418.400000
4777 12663 4780 1 109.50000 418.400000
4778 12663 4779 1 109.50000 418.400000
4778 12663 4780 1 109.50000 418.400000
4779 12663 4780 1 109.50000 418.400000
3001 12664 4072 1 109.50000 418.400000
3001 12664 4781 1 109.50000 418.400000
3001 12664 4782 1 109.50000 418.400000
4072 12664 4781 1 109.50000 418.400000
4072 12664 4782 1 109.50000 418.400000
4781 12664 4782 1 109.50000 418.400000
797 12665 4322 1 109.50000 418.400000
797 12665 4784 1 109.50000 418.400000
797 12665 4785 1 109.50000 418.400000
4322 12665 4784 1 109.50000 418.400000
4322 12665 4785 1 109.50000 418.400000
4784 12665 4785 1 109.50000 418.400000
379 12666 4786 1 109.50000 418.400000
379 12666 4787 1 109.50000 418.400000
379 12666 4788 1 109.50000 418.400000
4786 12666 4787 1 109.50000 418.400000
4786 12666 4788 1 109.50000 418.400000
4787 12666 4788 1 109.50000 418.400000
2021 12667 4789 1 109.50000 418.400000
2021 12667 6116 1 109.50000 418.400000
2021 12667 11156 1 109.50000 418.400000
4789 12667 6116 1 109.50000 418.400000
4789 12667 11156 1 109.50000 418.400000
6116 12667 11156 1 109.50000 418.400000
4790 12668 4791 1 109.50000 418.400000
4790 12668 4792 1 109.50000 418.400000
4790 12668 11177 1 109.50000 418.400000
4791 12668 4792 1 109.50000 418.400000
4791 12668 11177 1 109.50000 418.400000
4792 12668 11177 1 109.50000 418.400000
2971 12669 2972 1 109.50000 418.400000
2971 12669 4793 1 109.50000 418.400000
2971 12669 4794 1 109.50000 418.400000
2972 12669 4793 1 109.50000 418.400000
2972 12669 4794 1 109.50000 418.400000
4793 12669 4794 1 109.50000 418.400000
4796 12670 4797 1 109.50000 418.400000
4796 12670 4798 1 109.50000 418.400000
4796 12670 4799 1 109.50000 418.400000
4797 12670 4798 1 109.50000 418.400000
4797 12670 4799 1 109.50000 418.400000
4798 12670 4799 1 109.50000 418.400000
2732 12671 3337 1 109.50000 418.400000
2732 12671 4800 1 109.50000 418.400000
2732 12671 11186 1 109.50000 418.400000
3337 12671 4800 1 109.50000 418.400000
3337 12671 11186 1 109.50000 418.400000
4800 12671 11186 1 109.50000 418.400000
4801 12672 4803 1 109.50000 418.400000
4801 12672 6161 1 109.50000 418.400000
4801 12672 7451 1 109.50000 418.400000
4803 12672 6161 1 109.50000 418.400000
4803 12672 7451 1 109.50000 418.400000
6161 12672 7451 1 109.50000 418.400000
2791 12673 2793 1 109.50000 418.400000
2791 12673 4804 1 109.50000 418.400000
2791 12673 4805 1 109.50000 418.400000
2793 12673 4804 1 109.50000 418.400000
2793 12673 4805 1 109.50000 418.400000
4804 12673 4805 1 109.50000 418.400000
4810 12674 4812 1 109.50000 418.400000
4810 12674 8212 1 109.50000 418.400000
4810 12674 11275 1 109.50000 418.400000
4812 12674 8212 1 109.50000 418.400000
4812 12674 11275 1 109.50000 418.400000
8212 12674 11275 1 109.50000 418.400000
4815 12675 4816 1 109.50000 418.400000
4815 12675 11211 1 109.50000 418.400000
4815 12675 11249 1 109.50000 418.400000
4816 12675 11211 1 109.50000 418.400000
4816 12675 11249 1 109.50000 418.400000
11211 12675 11249 1 109.50000 418.400000
3725 12676 4818 1 109.50000 418.400000
3725 12676 4819 1 109.50000 418.400000
3725 12676 4820 1 109.50000 418.400000
4818 12676 4819 1 109.50000 418.400000
4818 12676 4820 1 109.50000 418.400000
4819 12676 4820 1 109.50000 418.400000
4821 12677 4822 1 109.50000 418.400000
4821 12677 4823 1 109.50000 418.400000
4821 12677 4824 1 109.50000 418.400000
4822 12677 4823 1 109.50000 418.400000
4822 12677 4824 1 109.50000 418.400000
4823 12677 4824 1 109.50000 418.400000
4825 12678 4826 1 109.50000 418.400000
4825 12678 4827 1 109.50000 418.400000
4825 12678 11307 1 109.50000 418.400000
4826 12678 4827 1 109.50000 418.400000
4826 12678 11307 1 109.50000 418.400000
4827 12678 11307 1 109.50000 418.400000
1424 12679 4828 1 109.50000 418.400000
1424 12679 4829 1 109.50000 418.400000
1424 12679 4830 1 109.50000 418.400000
4828 12679 4829 1 109.50000 418.400000
4828 12679 4830 1 109.50000 418.400000
4829 12679 4830 1 109.50000 418.400000
4831 12680 4832 1 109.50000 418.400000
4831 12680 4833 1 109.50000 418.400000
4831 12680 4834 1 109.50000 418.400000
4832 12680 4833 1 109.50000 418.400000
4832 12680 4834 1 109.50000 418.400000
4833 12680 4834 1 109.50000 418.400000
39 12681 4835 1 109.50000 418.400000
39 12681 4836 1 109.50000 418.400000
39 12681 4837 1 109.50000 418.400000
4835 12681 4836 1 109.50000 418.400000
4835 12681 4837 1 109.50000 418.400000
4836 12681 4837 1 109.50000 418.400000
955 12682 4838 1 109.50000 418.400000
955 12682 4839 1 109.50000 418.400000
955 12682 4840 1 109.50000 418.400000
4838 12682 4839 1 109.50000 418.400000
4838 12682 4840 1 109.50000 418.400000
4839 12682 4840 1 109.50000 418.400000
4841 12683 4842 1 109.50000 418.400000
4841 12683 4843 1 109.50000 418.400000
4841 12683 4844 1 109.50000 418.400000
4842 12683 4843 1 109.50000 418.400000
4842 12683 4844 1 109.50000 418.400000
4843 12683 4844 1 109.50000 418.400000
3912 12684 4845 1 109.50000 418.400000
3912 12684 4846 1 109.50000 418.400000
3912 12684 4847 1 109.50000 418.400000
4845 12684 4846 1 109.50000 418.400000
4845 12684 4847 1 109.50000 418.400000
4846 12684 4847 1 109.50000 418.400000
145 12685 4849 1 109.50000 418.400000
145 12685 11213 1 109.50000 418.400000
145 12685 11260 1 109.50000 418.400000
4849 12685 11213 1 109.50000 418.400000
4849 12685 11260 1 109.50000 418.400000
11213 12685 11260 1 109.50000 418.400000
340 12686 4850 1 109.50000 418.400000
340 12686 4851 1 109.50000 418.400000
340 12686 4852 1 109.50000 418.400000
4850 12686 4851 1 109.50000 418.400000
4850 12686 4852 1 109.50000 418.400000
4851 12686 4852 1 109.50000 418.400000
4392 12687 4853 1 109.50000 418.400000
4392 12687 4854 1 109.50000 418.400000
4392 12687 4855 1 109.50000 418.400000
4853 12687 4854 1 109.50000 418.400000
4853 12687 4855 1 109.50000 418.400000
4854 12687 4855 1 109.50000 418.400000
2447 12688 3909 1 109.50000 418.400000
2447 12688 4856 1 109.50000 418.400000
2447 12688 4857 1 109.50000 418.400000
3909 12688 4856 1 109.50000 418.400000
3909 12688 4857 1 109.50000 418.400000
4856 12688 4857 1 109.50000 418.400000
2865 12689 2866 1 109.50000 418.400000
2865 12689 4858 1 109.50000 418.400000
2865 12689 4859 1 109.50000 418.400000
2866 12689 4858 1 109.50000 418.400000
2866 12689 4859 1 109.50000 418.400000
4858 12689 4859 1 109.50000 418.400000
4863 12690 4864 1 109.50000 418.400000
4863 12690 4865 1 109.50000 418.400000
4863 12690 4866 1 109.50000 418.400000
4864 12690 4865 1 109.50000 418.400000
4864 12690 4866 1 109.50000 418.400000
4865 12690 4866 1 109.50000 418.400000
2320 12691 4867 1 109.50000 418.400000
2320 12691 4868 1 109.50000 418.400000
2320 12691 4869 1 109.50000 418.400000
4867 12691 4868 1 109.50000 418.400000
4867 12691 4869 1 109.50000 418.400000
4868 12691 4869 1 109.50000 418.400000
4870 12692 4871 1 109.50000 418.400000
4870 12692 11215 1 109.50000 418.400000
4870 12692 11308 1 109.50000 418.400000
4871 12692 11215 1 109.50000 418.400000
4871 12692 11308 1 109.50000 418.400000
11215 12692 11308 1 109.50000 418.400000
841 12693 2752 1 109.50000 418.400000
841 12693 3015 1 109.50000 418.400000
841 12693 4872 1 109.50000 418.400000
2752 12693 3015 1 109.50000 418.400000
2752 12693 4872 1 109.50000 418.400000
3015 12693 4872 1 109.50000 418.400000
3810 12694 4873 1 109.50000 418.400000
3810 12694 4874 1 109.50000 418.400000
3810 12694 4875 1 109.50000 418.400000
4873 12694 4874 1 109.50000 418.400000
4873 12694 4875 1 109.50000 418.400000
4874 12694 4875 1 109.50000 418.400000
1451 12695 4876 1 109.50000 418.400000
1451 12695 4877 1 109.50000 418.400000
1451 12695 4878 1 109.50000 418.400000
4876 12695 4877 1 109.50000 418.400000
4876 12695 4878 1 109.50000 418.400000
4877 12695 4878 1 109.50000 418.400000
161 12696 4880 1 109.50000 418.400000
161 12696 4881 1 109.50000 418.400000
161 12696 4882 1 109.50000 418.400000
4880 12696 4881 1 109.50000 418.400000
4880 12696 4882 1 109.50000 418.400000
4881 12696 4882 1 109.50000 418.400000
4722 12697 4883 1 109.50000 418.400000
4722 12697 4884 1 109.50000 418.400000
4722 12697 4885 1 109.50000 418.400000
4883 12697 4884 1 109.50000 418.400000
4883 12697 4885 1 109.50000 418.400000
4884 12697 4885 1 109.50000 418.400000
4887 12698 4888 1 109.50000 418.400000
4887 12698 4889 1 109.50000 418.400000
4887 12698 4890 1 109.50000 418.400000
4888 12698 4889 1 109.50000 418.400000
4888 12698 4890 1 109.50000 418.400000
4889 12698 4890 1 109.50000 418.400000
2426 12699 4891 1 109.50000 418.400000
2426 12699 4892 1 109.50000 418.400000
2426 12699 4893 1 109.50000 418.400000
4891 12699 4892 1 109.50000 418.400000
4891 12699 4893 1 109.50000 418.400000
4892 12699 4893 1 109.50000 418.400000
732 12700 2676 1 109.50000 418.400000
732 12700 4897 1 109.50000 418.400000
732 12700 4898 1 109.50000 418.400000
2676 12700 4897 1 109.50000 418.400000
2676 12700 4898 1 109.50000 418.400000
4897 12700 4898 1 109.50000 418.400000
4900 12701 4901 1 109.50000 418.400000
4900 12701 8815 1 109.50000 418.400000
4900 12701 11284 1 109.50000 418.400000
4901 12701 8815 1 109.50000 418.400000
4901 12701 11284 1 109.50000 418.400000
8815 12701 11284 1 109.50000 418.400000
4902 12702 4903 1 109.50000 418.400000
4902 12702 4904 1 109.50000 418.400000
4902 12702 4905 1 109.50000 418.400000
4903 12702 4904 1 109.50000 418.400000
4903 12702 4905 1 109.50000 418.400000
4904 12702 4905 1 109.50000 418.400000
4906 12703 4907 1 109.50000 418.400000
4906 12703 4908 1 109.50000 418.400000
4906 12703 4909 1 109.50000 418.400000
4907 12703 4908 1 109.50000 418.400000
4907 12703 4909 1 109.50000 418.400000
4908 12703 4909 1 109.50000 418.400000
4910 12704 4911 1 109.50000 418.400000
4910 12704 4912 1 109.50000 418.400000
4910 12704 4913 1 109.50000 418.400000
4911 12704 4912 1 109.50000 418.400000
4911 12704 4913 1 109.50000 418.400000
4912 12704 4913 1 109.50000 418.400000
4914 12705 4915 1 109.50000 418.400000
4914 12705 4916 1 109.50000 418.400000
4914 12705 4917 1 109.50000 418.400000
4915 12705 4916 1 109.50000 418.400000
4915 12705 4917 1 109.50000 418.400000
4916 12705 4917 1 109.50000 418.400000
4918 12706 4919 1 109.50000 418.400000
4918 12706 4920 1 109.50000 418.400000
4918 12706 4921 1 109.50000 418.400000
4919 12706 4920 1 109.50000 418.400000
4919 12706 4921 1 109.50000 418.400000
4920 12706 4921 1 109.50000 418.400000
1302 12707 4923 1 109.50000 418.400000
1302 12707 4924 1 109.50000 418.400000
1302 12707 4925 1 109.50000 418.400000
4923 12707 4924 1 109.50000 418.400000
4923 12707 4925 1 109.50000 418.400000
4924 12707 4925 1 109.50000 418.400000
4458 12708 4926 1 109.50000 418.400000
4458 12708 4927 1 109.50000 418.400000
4458 12708 4928 1 109.50000 418.400000
4926 12708 4927 1 109.50000 418.400000
4926 12708 4928 1 109.50000 418.400000
4927 12708 4928 1 109.50000 418.400000
4617 12709 4929 1 109.50000 418.400000
4617 12709 4930 1 109.50000 418.400000
4617 12709 11188 1 109.50000 418.400000
4929 12709 4930 1 109.50000 418.400000
4929 12709 11188 1 109.50000 418.400000
4930 12709 11188 1 109.50000 418.400000
960 12710 2203 1 109.50000 418.400000
960 12710 4194 1 109.50000 418.400000
960 12710 4931 1 109.50000 418.400000
2203 12710 4194 1 109.50000 418.400000
2203 12710 4931 1 109.50000 418.400000
4194 12710 4931 1 109.50000 418.400000
4933 12711 4934 1 109.50000 418.400000
4933 12711 4935 1 109.50000 418.400000
4933 12711 4936 1 109.50000 418.400000
4934 12711 4935 1 109.50000 418.400000
4934 12711 4936 1 109.50000 418.400000
4935 12711 4936 1 109.50000 418.400000
4941 12712 4942 1 109.50000 418.400000
4941 12712 4943 1 109.50000 418.400000
4941 12712 6815 1 109.50000 418.400000
4942 12712 4943 1 109.50000 418.400000
4942 12712 6815 1 109.50000 418.400000
4943 12712 6815 1 109.50000 418.400000
3850 12713 4944 1 109.50000 418.400000
3850 12713 4945 1 109.50000 418.400000
3850 12713 4946 1 109.50000 418.400000
4944 12713 4945 1 109.50000 418.400000
4944 12713 4946 1 109.50000 418.400000
4945 12713 4946 1 109.50000 418.400000
4744 12714 4947 1 109.50000 418.400000
4744 12714 4948 1 109.50000 418.400000
4744 12714 4949 1 109.50000 418.400000
4947 12714 4948 1 109.50000 418.400000
4947 12714 4949 1 109.50000 418.400000
4948 12714 4949 1 109.50000 418.400000
4950 12715 4951 1 109.50000 418.400000
4950 12715 4952 1 109.50000 418.400000
4950 12715 4953 1 109.50000 418.400000
4951 12715 4952 1 109.50000 418.400000
4951 12715 4953 1 109.50000 418.400000
4952 12715 4953 1 109.50000 418.400000
180 12716 4954 1 109.50000 418.400000
180 12716 4955 1 109.50000 418.400000
180 12716 4956 1 109.50000 418.400000
4954 12716 4955 1 109.50000 418.400000
4954 12716 4956 1 109.50000 418.400000
4955 12716 4956 1 109.50000 418.400000
4957 12717 4958 1 109.50000 418.400000
4957 12717 4959 1 109.50000 418.400000
4957 12717 4960 1 109.50000 418.400000
4958 12717 4959 1 109.50000 418.400000
4958 12717 4960 1 109.50000 418.400000
4959 12717 4960 1 109.50000 418.400000
1777 12718 1943 1 109.50000 418.400000
1777 12718 4962 1 109.50000 418.400000
1777 12718 4963 1 109.50000 418.400000
1943 12718 4962 1 109.50000 418.400000
1943 12718 4963 1 109.50000 418.400000
4962 12718 4963 1 109.50000 418.400000
4780 12719 4964 1 109.50000 418.400000
4780 12719 4965 1 109.50000 418.400000
4780 12719 4966 1 109.50000 418.400000
4964 12719 4965 1 109.50000 418.400000
4964 12719 4966 1 109.50000 418.400000
4965 12719 4966 1 109.50000 418.400000
2296 12720 3299 1 109.50000 418.400000
2296 12720 4967 1 109.50000 418.400000
2296 12720 4968 1 109.50000 418.400000
3299 12720 4967 1 109.50000 418.400000
3299 12720 4968 1 109.50000 418.400000
4967 12720 4968 1 109.50000 418.400000
3679 12721 4969 1 109.50000 418.400000
3679 12721 4970 1 109.50000 418.400000
3679 12721 4971 1 109.50000 418.400000
4969 12721 4970 1 109.50000 418.400000
4969 12721 4971 1 109.50000 418.400000
4970 12721 4971 1 109.50000 418.400000
4972 12722 4973 1 109.50000 418.400000
4972 12722 4974 1 109.50000 418.400000
4972 12722 4975 1 109.50000 418.400000
4973 12722 4974 1 109.50000 418.400000
4973 12722 4975 1 109.50000 418.400000
4974 12722 4975 1 109.50000 418.400000
4244 12723 4976 1 109.50000 418.400000
4244 12723 4977 1 109.50000 418.400000
4244 12723 4978 1 109.50000 418.400000
4976 12723 4977 1 109.50000 418.400000
4976 12723 4978 1 109.50000 418.400000
4977 12723 4978 1 109.50000 418.400000
610 12724 1099 1 109.50000 418.400000
610 12724 4979 1 109.50000 418.400000
610 12724 4980 1 109.50000 418.400000
1099 12724 4979 1 109.50000 418.400000
1099 12724 4980 1 109.50000 418.400000
4979 12724 4980 1 109.50000 418.400000
4600 12725 4983 1 109.50000 418.400000
4600 12725 4984 1 109.50000 418.400000
4600 12725 4985 1 109.50000 418.400000
4983 12725 4984 1 109.50000 418.400000
4983 12725 4985 1 109.50000 418.400000
4984 12725 4985 1 109.50000 418.400000
4986 12726 4987 1 109.50000 418.400000
4986 12726 4988 1 109.50000 418.400000
4986 12726 11067 1 109.50000 418.400000
4987 12726 4988 1 109.50000 418.400000
4987 12726 11067 1 109.50000 418.400000
4988 12726 11067 1 109.50000 418.400000
2405 12727 3614 1 109.50000 418.400000
2405 12727 4381 1 109.50000 418.400000
2405 12727 4989 1 109.50000 418.400000
3614 12727 4381 1 109.50000 418.400000
3614 12727 4989 1 109.50000 418.400000
4381 12727 4989 1 109.50000 418.400000
366 12728 709 1 109.50000 418.400000
366 12728 4992 1 109.50000 418.400000
366 12728 4993 1 109.50000 418.400000
709 12728 4992 1 109.50000 418.400000
709 12728 4993 1 109.50000 418.400000
4992 12728 4993 1 109.50000 418.400000
4998 12729 4999 1 109.50000 418.400000
4998 12729 5000 1 109.50000 418.400000
4998 12729 5001 1 109.50000 418.400000
4999 12729 5000 1 109.50000 418.400000
4999 12729 5001 1 109.50000 418.400000
5000 12729 5001 1 109.50000 418.400000
4232 12730 5002 1 109.50000 418.400000
4232 12730 5003 1 109.50000 418.400000
4232 12730 5004 1 109.50000 418.400000
5002 12730 5003 1 109.50000 418.400000
5002 12730 5004 1 109.50000 418.400000
5003 12730 5004 1 109.50000 418.400000
3383 12731 5005 1 109.50000 418.400000
3383 12731 5006 1 109.50000 418.400000
3383 12731 5007 1 109.50000 418.400000
5005 12731 5006 1 109.50000 418.400000
5005 12731 5007 1 109.50000 418.400000
5006 12731 5007 1 109.50000 418.400000
1849 12732 2202 1 109.50000 418.400000
1849 12732 5008 1 109.50000 418.400000
1849 12732 5009 1 109.50000 418.400000
2202 12732 5008 1 109.50000 418.400000
2202 12732 5009 1 109.50000 418.400000
5008 12732 5009 1 109.50000 418.400000
5010 12733 5013 1 109.50000 418.400000
5010 12733 5858 1 109.50000 418.400000
5010 12733 7761 1 109.50000 418.400000
5013 12733 5858 1 109.50000 418.400000
5013 12733 7761 1 109.50000 418.400000
5858 12733 7761 1 109.50000 418.400000
5014 12734 5015 1 109.50000 418.400000
5014 12734 5016 1 109.50000 418.400000
5014 12734 5017 1 109.50000 418.400000
5015 12734 5016 1 109.50000 418.400000
5015 12734 5017 1 109.50000 418.400000
5016 12734 5017 1 109.50000 418.400000
1642 12735 5018 1 109.50000 418.400000
1642 12735 5019 1 109.50000 418.400000
1642 12735 5020 1 109.50000 418.400000
5018 12735 5019 1 109.50000 418.400000
5018 12735 5020 1 109.50000 418.400000
5019 12735 5020 1 109.50000 418.400000
2123 12736 3310 1 109.50000 418.400000
2123 12736 5021 1 109.50000 418.400000
2123 12736 10156 1 109.50000 418.400000
3310 12736 5021 1 109.50000 418.400000
3310 12736 10156 1 109.50000 418.400000
5021 12736 10156 1 109.50000 418.400000
5022 12737 5023 1 109.50000 418.400000
5022 12737 5024 1 109.50000 418.400000
5022 12737 5025 1 109.50000 418.400000
5023 12737 5024 1 109.50000 418.400000
5023 12737 5025 1 109.50000 418.400000
5024 12737 5025 1 109.50000 418.400000
2883 12738 3713 1 109.50000 418.400000
2883 12738 5026 1 109.50000 418.400000
2883 12738 5027 1 109.50000 418.400000
3713 12738 5026 1 109.50000 418.400000
3713 12738 5027 1 109.50000 418.400000
5026 12738 5027 1 109.50000 418.400000
446 12739 4191 1 109.50000 418.400000
446 12739 5029 1 109.50000 418.400000
446 12739 6715 1 109.50000 418.400000
4191 12739 5029 1 109.50000 418.400000
4191 12739 6715 1 109.50000 418.400000
5029 12739 6715 1 109.50000 418.400000
5032 12740 5033 1 109.50000 418.400000
5032 12740 5034 1 109.50000 418.400000
5032 12740 5035 1 109.50000 418.400000
5033 12740 5034 1 109.50000 418.400000
5033 12740 5035 1 109.50000 418.400000
5034 12740 5035 1 109.50000 418.400000
431 12741 3753 1 109.50000 418.400000
431 12741 5036 1 109.50000 418.400000
431 12741 5037 1 109.50000 418.400000
3753 12741 5036 1 109.50000 418.400000
3753 12741 5037 1 109.50000 418.400000
5036 12741 5037 1 109.50000 418.400000
5039 12742 5040 1 109.50000 418.400000
5039 12742 5041 1 109.50000 418.400000
5039 12742 5042 1 109.50000 418.400000
5040 12742 5041 1 109.50000 418.400000
5040 12742 5042 1 109.50000 418.400000
5041 12742 5042 1 109.50000 418.400000
4571 12743 5045 1 109.50000 418.400000
4571 12743 5046 1 109.50000 418.400000
4571 12743 5047 1 109.50000 418.400000
5045 12743 5046 1 109.50000 418.400000
5045 12743 5047 1 109.50000 418.400000
5046 12743 5047 1 109.50000 418.400000
5048 12744 5050 1 109.50000 418.400000
5048 12744 5051 1 109.50000 418.400000
5048 12744 11090 1 109.50000 418.400000
5050 12744 5051 1 109.50000 418.400000
5050 12744 11090 1 109.50000 418.400000
5051 12744 11090 1 109.50000 418.400000
2601 12745 4876 1 109.50000 418.400000
2601 12745 5052 1 109.50000 418.400000
2601 12745 5053 1 109.50000 418.400000
4876 12745 5052 1 109.50000 418.400000
4876 12745 5053 1 109.50000 418.400000
5052 12745 5053 1 109.50000 418.400000
4182 12746 5056 1 109.50000 418.400000
4182 12746 5057 1 109.50000 418.400000
4182 12746 5058 1 109.50000 418.400000
5056 12746 5057 1 109.50000 418.400000
5056 12746 5058 1 109.50000 418.400000
5057 12746 5058 1 109.50000 418.400000
1660 12747 4690 1 109.50000 418.400000
1660 12747 5060 1 109.50000 418.400000
1660 12747 5061 1 109.50000 418.400000
4690 12747 5060 1 109.50000 418.400000
4690 12747 5061 1 109.50000 418.400000
5060 12747 5061 1 109.50000 418.400000
1139 12748 5062 1 109.50000 418.400000
1139 12748 5063 1 109.50000 418.400000
1139 12748 5064 1 109.50000 418.400000
5062 12748 5063 1 109.50000 418.400000
5062 12748 5064 1 109.50000 418.400000
5063 12748 5064 1 109.50000 418.400000
647 12749 5065 1 109.50000 418.400000
647 12749 5066 1 109.50000 418.400000
647 12749 5067 1 109.50000 418.400000
5065 12749 5066 1 109.50000 418.400000
5065 12749 5067 1 109.50000 418.400000
5066 12749 5067 1 109.50000 418.400000
3535 12750 5068 1 109.50000 418.400000
3535 12750 5069 1 109.50000 418.400000
3535 12750 5070 1 109.50000 418.400000
5068 12750 5069 1 109.50000 418.400000
5068 12750 5070 1 109.50000 418.400000
5069 12750 5070 1 109.50000 418.400000
4545 12751 5071 1 109.50000 418.400000
4545 12751 5072 1 109.50000 418.400000
4545 12751 5073 1 109.50000 418.400000
5071 12751 5072 1 109.50000 418.400000
5071 12751 5073 1 109.50000 418.400000
5072 12751 5073 1 109.50000 418.400000
5074 12752 5075 1 109.50000 418.400000
5074 12752 5076 1 109.50000 418.400000
5074 12752 5077 1 109.50000 418.400000
5075 12752 5076 1 109.50000 418.400000
5075 12752 5077 1 109.50000 418.400000
5076 12752 5077 1 109.50000 418.400000
2142 12753 5078 1 109.50000 418.400000
2142 12753 5079 1 109.50000 418.400000
2142 12753 5080 1 109.50000 418.400000
5078 12753 5079 1 109.50000 418.400000
5078 12753 5080 1 109.50000 418.400000
5079 12753 5080 1 109.50000 418.400000
376 12754 2161 1 109.50000 418.400000
376 12754 5081 1 109.50000 418.400000
376 12754 5082 1 109.50000 418.400000
2161 12754 5081 1 109.50000 418.400000
2161 12754 5082 1 109.50000 418.400000
5081 12754 5082 1 109.50000 418.400000
35 12755 425 1 109.50000 418.400000
35 12755 5083 1 109.50000 418.400000
35 12755 5084 1 109.50000 418.400000
425 12755 5083 1 109.50000 418.400000
425 12755 5084 1 109.50000 418.400000
5083 12755 5084 1 109.50000 418.400000
4222 12756 5085 1 109.50000 418.400000
4222 12756 5086 1 109.50000 418.400000
4222 12756 5087 1 109.50000 418.400000
5085 12756 5086 1 109.50000 418.400000
5085 12756 5087 1 109.50000 418.400000
5086 12756 5087 1 109.50000 418.400000
5088 12757 5089 1 109.50000 418.400000
5088 12757 5090 1 109.50000 418.400000
5088 12757 5091 1 109.50000 418.400000
5089 12757 5090 1 109.50000 418.400000
5089 12757 5091 1 109.50000 418.400000
5090 12757 5091 1 109.50000 418.400000
5092 12758 5093 1 109.50000 418.400000
5092 12758 5094 1 109.50000 418.400000
5092 12758 5095 1 109.50000 418.400000
5093 12758 5094 1 109.50000 418.400000
5093 12758 5095 1 109.50000 418.400000
5094 12758 5095 1 109.50000 418.400000
5096 12759 5097 1 109.50000 418.400000
5096 12759 5098 1 109.50000 418.400000
5096 12759 5099 1 109.50000 418.400000
5097 12759 5098 1 109.50000 418.400000
5097 12759 5099 1 109.50000 418.400000
5098 12759 5099 1 109.50000 418.400000
5100 12760 5101 1 109.50000 418.400000
5100 12760 5102 1 109.50000 418.400000
5100 12760 5103 1 109.50000 418.400000
5101 12760 5102 1 109.50000 418.400000
5101 12760 5103 1 109.50000 418.400000
5102 12760 5103 1 109.50000 418.400000
2997 12761 4997 1 109.50000 418.400000
2997 12761 5106 1 109.50000 418.400000
2997 12761 5107 1 109.50000 418.400000
4997 12761 5106 1 109.50000 418.400000
4997 12761 5107 1 109.50000 418.400000
5106 12761 5107 1 109.50000 418.400000
5108 12762 5109 1 109.50000 418.400000
5108 12762 5110 1 109.50000 418.400000
5108 12762 5111 1 109.50000 418.400000
5109 12762 5110 1 109.50000 418.400000
5109 12762 5111 1 109.50000 418.400000
5110 12762 5111 1 109.50000 418.400000
5112 12763 5113 1 109.50000 418.400000
5112 12763 5114 1 109.50000 418.400000
5112 12763 6356 1 109.50000 418.400000
5113 12763 5114 1 109.50000 418.400000
5113 12763 6356 1 109.50000 418.400000
5114 12763 6356 1 109.50000 418.400000
2175 12764 4734 1 109.50000 418.400000
2175 12764 5116 1 109.50000 418.400000
2175 12764 5117 1 109.50000 418.400000
4734 12764 5116 1 109.50000 418.400000
4734 12764 5117 1 109.50000 418.400000
5116 12764 5117 1 109.50000 418.400000
5118 12765 5119 1 109.50000 418.400000
5118 12765 5120 1 109.50000 418.400000
5118 12765 5121 1 109.50000 418.400000
5119 12765 5120 1 109.50000 418.400000
5119 12765 5121 1 109.50000 418.400000
5120 12765 5121 1 109.50000 418.400000
360 12766 5122 1 109.50000 418.400000
360 12766 5123 1 109.50000 418.400000
360 12766 5124 1 109.50000 418.400000
5122 12766 5123 1 109.50000 418.400000
5122 12766 5124 1 109.50000 418.400000
5123 12766 5124 1 109.50000 418.400000
2806 12767 5123 1 109.50000 418.400000
2806 12767 5125 1 109.50000 418.400000
2806 12767 5126 1 109.50000 418.400000
5123 12767 5125 1 109.50000 418.400000
5123 12767 5126 1 109.50000 418.400000
5125 12767 5126 1 109.50000 418.400000
1653 12768 5127 1 109.50000 418.400000
1653 12768 5128 1 109.50000 418.400000
1653 12768 5129 1 109.50000 418.400000
5127 12768 5128 1 109.50000 418.400000
5127 12768 5129 1 109.50000 418.400000
5128 12768 5129 1 109.50000 418.400000
2109 12769 4061 1 109.50000 418.400000
2109 12769 5133 1 109.50000 418.400000
2109 12769 5134 1 109.50000 418.400000
4061 12769 5133 1 109.50000 418.400000
4061 12769 5134 1 109.50000 418.400000
5133 12769 5134 1 109.50000 418.400000
5137 12770 5138 1 109.50000 418.400000
5137 12770 5139 1 109.50000 418.400000
5137 12770 5140 1 109.50000 418.400000
5138 12770 5139 1 109.50000 418.400000
5138 12770 5140 1 109.50000 418.400000
5139 12770 5140 1 109.50000 418.400000
5144 12771 5145 1 109.50000 418.400000
5144 12771 5146 1 109.50000 418.400000
5144 12771 5147 1 109.50000 418.400000
5145 12771 5146 1 109.50000 418.400000
5145 12771 5147 1 109.50000 418.400000
5146 12771 5147 1 109.50000 418.400000
1770 12772 5148 1 109.50000 418.400000
1770 12772 5149 1 109.50000 418.400000
1770 12772 5150 1 109.50000 418.400000
5148 12772 5149 1 109.50000 418.400000
5148 12772 5150 1 109.50000 418.400000
5149 12772 5150 1 109.50000 418.400000
3180 12773 5151 1 109.50000 418.400000
3180 12773 5152 1 109.50000 418.400000
3180 12773 5153 1 109.50000 418.400000
5151 12773 5152 1 109.50000 418.400000
5151 12773 5153 1 109.50000 418.400000
5152 12773 5153 1 109.50000 418.400000
700 12774 5154 1 109.50000 418.400000
700 12774 5155 1 109.50000 418.400000
700 12774 5156 1 109.50000 418.400000
5154 12774 5155 1 109.50000 418.400000
5154 12774 5156 1 109.50000 418.400000
5155 12774 5156 1 109.50000 418.400000
5157 12775 5158 1 109.50000 418.400000
5157 12775 5159 1 109.50000 418.400000
5157 12775 5160 1 109.50000 418.400000
5158 12775 5159 1 109.50000 418.400000
5158 12775 5160 1 109.50000 418.400000
5159 12775 5160 1 109.50000 418.400000
293 12776 2937 1 109.50000 418.400000
293 12776 5162 1 109.50000 418.400000
293 12776 9999 1 109.50000 418.400000
2937 12776 5162 1 109.50000 418.400000
2937 12776 9999 1 109.50000 418.400000
5162 12776 9999 1 109.50000 418.400000
3686 12777 5163 1 109.50000 418.400000
3686 12777 5164 1 109.50000 418.400000
3686 12777 11184 1 109.50000 418.400000
5163 12777 5164 1 109.50000 418.400000
5163 12777 11184 1 109.50000 418.400000
5164 12777 11184 1 109.50000 418.400000
342 12778 4193 1 109.50000 418.400000
342 12778 5165 1 109.50000 418.400000
342 12778 5166 1 109.50000 418.400000
4193 12778 5165 1 109.50000 418.400000
4193 12778 5166 1 109.50000 418.400000
5165 12778 5166 1 109.50000 418.400000
1978 12779 2985 1 109.50000 418.400000
1978 12779 5167 1 109.50000 418.400000
1978 12779 5168 1 109.50000 418.400000
2985 12779 5167 1 109.50000 418.400000
2985 12779 5168 1 109.50000 418.400000
5167 12779 5168 1 109.50000 418.400000
1205 12780 3777 1 109.50000 418.400000
1205 12780 5169 1 109.50000 418.400000
1205 12780 5170 1 109.50000 418.400000
3777 12780 5169 1 109.50000 418.400000
3777 12780 5170 1 109.50000 418.400000
5169 12780 5170 1 109.50000 418.400000
2994 12781 3386 1 109.50000 418.400000
2994 12781 3688 1 109.50000 418.400000
2994 12781 5171 1 109.50000 418.400000
3386 12781 3688 1 109.50000 418.400000
3386 12781 5171 1 109.50000 418.400000
3688 12781 5171 1 109.50000 418.400000
5175 12782 5176 1 109.50000 418.400000
5175 12782 5177 1 109.50000 418.400000
5175 12782 5178 1 109.50000 418.400000
5176 12782 5177 1 109.50000 418.400000
5176 12782 5178 1 109.50000 418.400000
5177 12782 5178 1 109.50000 418.400000
3095 12783 5179 1 109.50000 418.400000
3095 12783 5180 1 109.50000 418.400000
3095 12783 5181 1 109.50000 418.400000
5179 12783 5180 1 109.50000 418.400000
5179 12783 5181 1 109.50000 418.400000
5180 12783 5181 1 109.50000 418.400000
2852 12784 5182 1 109.50000 418.400000
2852 12784 5183 1 109.50000 418.400000
2852 12784 5184 1 109.50000 418.400000
5182 12784 5183 1 109.50000 418.400000
5182 12784 5184 1 109.50000 418.400000
5183 12784 5184 1 109.50000 418.400000
5185 12785 5186 1 109.50000 418.400000
5185 12785 5187 1 109.50000 418.400000
5185 12785 5745 1 109.50000 418.400000
5186 12785 5187 1 109.50000 418.400000
5186 12785 5745 1 109.50000 418.400000
5187 12785 5745 1 109.50000 418.400000
3751 12786 5188 1 109.50000 418.400000
3751 12786 5189 1 109.50000 418.400000
3751 12786 11299 1 109.50000 418.400000
5188 12786 5189 1 109.50000 418.400000
5188 12786 11299 1 109.50000 418.400000
5189 12786 11299 1 109.50000 418.400000
2188 12787 3950 1 109.50000 418.400000
2188 12787 5008 1 109.50000 418.400000
2188 12787 5190 1 109.50000 418.400000
3950 12787 5008 1 109.50000 418.400000
3950 12787 5190 1 109.50000 418.400000
5008 12787 5190 1 109.50000 418.400000
4022 12788 5191 1 109.50000 418.400000
4022 12788 5192 1 109.50000 418.400000
4022 12788 5193 1 109.50000 418.400000
5191 12788 5192 1 109.50000 418.400000
5191 12788 5193 1 109.50000 418.400000
5192 12788 5193 1 109.50000 418.400000
2592 12789 5194 1 109.50000 418.400000
2592 12789 5195 1 109.50000 418.400000
2592 12789 5196 1 109.50000 418.400000
5194 12789 5195 1 109.50000 418.400000
5194 12789 5196 1 109.50000 418.400000
5195 12789 5196 1 109.50000 418.400000
4821 12790 5197 1 109.50000 418.400000
4821 12790 5198 1 109.50000 418.400000
4821 12790 5199 1 109.50000 418.400000
5197 12790 5198 1 109.50000 418.400000
5197 12790 5199 1 109.50000 418.400000
5198 12790 5199 1 109.50000 418.400000
987 12791 5200 1 109.50000 418.400000
987 12791 5201 1 109.50000 418.400000
987 12791 5202 1 109.50000 418.400000
5200 12791 5201 1 109.50000 418.400000
5200 12791 5202 1 109.50000 418.400000
5201 12791 5202 1 109.50000 418.400000
5203 12792 5204 1 109.50000 418.400000
5203 12792 5205 1 109.50000 418.400000
5203 12792 6479 1 109.50000 418.400000
5204 12792 5205 1 109.50000 418.400000
5204 12792 6479 1 109.50000 418.400000
5205 12792 6479 1 109.50000 418.400000
5206 12793 5208 1 109.50000 418.400000
5206 12793 5209 1 109.50000 418.400000
5206 12793 5955 1 109.50000 418.400000
5208 12793 5209 1 109.50000 418.400000
5208 12793 5955 1 109.50000 418.400000
5209 12793 5955 1 109.50000 418.400000
5210 12794 5211 1 109.50000 418.400000
5210 12794 5212 1 109.50000 418.400000
5210 12794 5213 1 109.50000 418.400000
5211 12794 5212 1 109.50000 418.400000
5211 12794 5213 1 109.50000 418.400000
5212 12794 5213 1 109.50000 418.400000
2023 12795 5214 1 109.50000 418.400000
2023 12795 5215 1 109.50000 418.400000
2023 12795 5216 1 109.50000 418.400000
5214 12795 5215 1 109.50000 418.400000
5214 12795 5216 1 109.50000 418.400000
5215 12795 5216 1 109.50000 418.400000
5217 12796 5218 1 109.50000 418.400000
5217 12796 5219 1 109.50000 418.400000
5217 12796 5220 1 109.50000 418.400000
5218 12796 5219 1 109.50000 418.400000
5218 12796 5220 1 109.50000 418.400000
5219 12796 5220 1 109.50000 418.400000
1204 12797 1782 1 109.50000 418.400000
1204 12797 3778 1 109.50000 418.400000
1204 12797 5222 1 109.50000 418.400000
1782 12797 3778 1 109.50000 418.400000
1782 12797 5222 1 109.50000 418.400000
3778 12797 5222 1 109.50000 418.400000
5224 12798 5225 1 109.50000 418.400000
5224 12798 5226 1 109.50000 418.400000
5224 12798 8421 1 109.50000 418.400000
5225 12798 5226 1 109.50000 418.400000
5225 12798 8421 1 109.50000 418.400000
5226 12798 8421 1 109.50000 418.400000
5227 12799 5228 1 109.50000 418.400000
5227 12799 5229 1 109.50000 418.400000
5227 12799 5230 1 109.50000 418.400000
5228 12799 5229 1 109.50000 418.400000
5228 12799 5230 1 109.50000 418.400000
5229 12799 5230 1 109.50000 418.400000
317 12800 5232 1 109.50000 418.400000
317 12800 5233 1 109.50000 418.400000
317 12800 10628 1 109.50000 418.400000
5232 12800 5233 1 109.50000 418.400000
5232 12800 10628 1 109.50000 418.400000
5233 12800 10628 1 109.50000 418.400000
1258 12801 3717 1 109.50000 418.400000
1258 12801 5236 1 109.50000 418.400000
1258 12801 5237 1 109.50000 418.400000
3717 12801 5236 1 109.50000 418.400000
3717 12801 5237 1 109.50000 418.400000
5236 12801 5237 1 109.50000 418.400000
5238 12802 5240 1 109.50000 418.400000
5238 12802 5241 1 109.50000 418.400000
5238 12802 9128 1 109.50000 418.400000
5240 12802 5241 1 109.50000 418.400000
5240 12802 9128 1 109.50000 418.400000
5241 12802 9128 1 109.50000 418.400000
5242 12803 5243 1 109.50000 418.400000
5242 12803 5244 1 109.50000 418.400000
5242 12803 5245 1 109.50000 418.400000
5243 12803 5244 1 109.50000 418.400000
5243 12803 5245 1 109.50000 418.400000
5244 12803 5245 1 109.50000 418.400000
1497 12804 5246 1 109.50000 418.400000
1497 12804 5247 1 109.50000 418.400000
1497 12804 5248 1 109.50000 418.400000
5246 12804 5247 1 109.50000 418.400000
5246 12804 5248 1 109.50000 418.400000
5247 12804 5248 1 109.50000 418.400000
5249 12805 5250 1 109.50000 418.400000
5249 12805 5251 1 109.50000 418.400000
5249 12805 11226 1 109.50000 418.400000
5250 12805 5251 1 109.50000 418.400000
5250 12805 11226 1 109.50000 418.400000
5251 12805 11226 1 109.50000 418.400000
5253 12806 5254 1 109.50000 418.400000
5253 12806 5255 1 109.50000 418.400000
5253 12806 6222 1 109.50000 418.400000
5254 12806 5255 1 109.50000 418.400000
5254 12806 6222 1 109.50000 418.400000
5255 12806 6222 1 109.50000 418.400000
3632 12807 4521 1 109.50000 418.400000
3632 12807 5258 1 109.50000 418.400000
3632 12807 5259 1 109.50000 418.400000
4521 12807 5258 1 109.50000 418.400000
4521 12807 5259 1 109.50000 418.400000
5258 12807 5259 1 109.50000 418.400000
561 12808 5262 1 109.50000 418.400000
561 12808 5263 1 109.50000 418.400000
561 12808 5264 1 109.50000 418.400000
5262 12808 5263 1 109.50000 418.400000
5262 12808 5264 1 109.50000 418.400000
5263 12808 5264 1 109.50000 418.400000
1242 12809 5265 1 109.50000 418.400000
1242 12809 5266 1 109.50000 418.400000
1242 12809 9329 1 109.50000 418.400000
5265 12809 5266 1 109.50000 418.400000
5265 12809 9329 1 109.50000 418.400000
5266 12809 9329 1 109.50000 418.400000
5267 12810 5268 1 109.50000 418.400000
5267 12810 5269 1 109.50000 418.400000
5267 12810 5270 1 109.50000 418.400000
5268 12810 5269 1 109.50000 418.400000
5268 12810 5270 1 109.50000 418.400000
5269 12810 5270 1 109.50000 418.400000
1309 12811 5271 1 109.50000 418.400000
1309 12811 5272 1 109.50000 418.400000
1309 12811 5273 1 109.50000 418.400000
5271 12811 5272 1 109.50000 418.400000
5271 12811 5273 1 109.50000 418.400000
5272 12811 5273 1 109.50000 418.400000
848 12812 5274 1 109.50000 418.400000
848 12812 5275 1 109.50000 418.400000
848 12812 5276 1 109.50000 418.400000
5274 12812 5275 1 109.50000 418.400000
5274 12812 5276 1 109.50000 418.400000
5275 12812 5276 1 109.50000 418.400000
5277 12813 5278 1 109.50000 418.400000
5277 12813 5279 1 109.50000 418.400000
5277 12813 5280 1 109.50000 418.400000
5278 12813 5279 1 109.50000 418.400000
5278 12813 5280 1 109.50000 418.400000
5279 12813 5280 1 109.50000 418.400000
5281 12814 5282 1 109.50000 418.400000
5281 12814 5283 1 109.50000 418.400000
5281 12814 5284 1 109.50000 418.400000
5282 12814 5283 1 109.50000 418.400000
5282 12814 5284 1 109.50000 418.400000
5283 12814 5284 1 109.50000 418.400000
432 12815 674 1 109.50000 418.400000
432 12815 5285 1 109.50000 418.400000
432 12815 5286 1 109.50000 418.400000
674 12815 5285 1 109.50000 418.400000
674 12815 5286 1 109.50000 418.400000
5285 12815 5286 1 109.50000 418.400000
2789 12816 5289 1 109.50000 418.400000
2789 12816 5290 1 109.50000 418.400000
2789 12816 5291 1 109.50000 418.400000
5289 12816 5290 1 109.50000 418.400000
5289 12816 5291 1 109.50000 418.400000
5290 12816 5291 1 109.50000 418.400000
861 12817 5292 1 109.50000 418.400000
861 12817 5293 1 109.50000 418.400000
861 12817 5294 1 109.50000 418.400000
5292 12817 5293 1 109.50000 418.400000
5292 12817 5294 1 109.50000 418.400000
5293 12817 5294 1 109.50000 418.400000
25 12818 5295 1 109.50000 418.400000
25 12818 5296 1 109.50000 418.400000
25 12818 5297 1 109.50000 418.400000
5295 12818 5296 1 109.50000 418.400000
5295 12818 5297 1 109.50000 418.400000
5296 12818 5297 1 109.50000 418.400000
336 12819 5300 1 109.50000 418.400000
336 12819 5301 1 109.50000 418.400000
336 12819 5302 1 109.50000 418.400000
5300 12819 5301 1 109.50000 418.400000
5300 12819 5302 1 109.50000 418.400000
5301 12819 5302 1 109.50000 418.400000
1174 12820 1666 1 109.50000 418.400000
1174 12820 5303 1 109.50000 418.400000
1174 12820 5304 1 109.50000 418.400000
1666 12820 5303 1 109.50000 418.400000
1666 12820 5304 1 109.50000 418.400000
5303 12820 5304 1 109.50000 418.400000
804 12821 5305 1 109.50000 418.400000
804 12821 5306 1 109.50000 418.400000
804 12821 5307 1 109.50000 418.400000
5305 12821 5306 1 109.50000 418.400000
5305 12821 5307 1 109.50000 418.400000
5306 12821 5307 1 109.50000 418.400000
5308 12822 5309 1 109.50000 418.400000
5308 12822 5310 1 109.50000 418.400000
5308 12822 5311 1 109.50000 418.400000
5309 12822 5310 1 109.50000 418.400000
5309 12822 5311 1 109.50000 418.400000
5310 12822 5311 1 109.50000 418.400000
608 12823 1963 1 109.50000 418.400000
608 12823 4210 1 109.50000 418.400000
608 12823 5312 1 109.50000 418.400000
1963 12823 4210 1 109.50000 418.400000
1963 12823 5312 1 109.50000 418.400000
4210 12823 5312 1 109.50000 418.400000
5313 12824 5314 1 109.50000 418.400000
5313 12824 5315 1 109.50000 418.400000
5313 12824 5316 1 109.50000 418.400000
5314 12824 5315 1 109.50000 418.400000
5314 12824 5316 1 109.50000 418.400000
5315 12824 5316 1 109.50000 418.400000
5317 12825 5318 1 109.50000 418.400000
5317 12825 5319 1 109.50000 418.400000
5317 12825 5320 1 109.50000 418.400000
5318 12825 5319 1 109.50000 418.400000
5318 12825 5320 1 109.50000 418.400000
5319 12825 5320 1 109.50000 418.400000
1196 12826 5321 1 109.50000 418.400000
1196 12826 5322 1 109.50000 418.400000
1196 12826 5323 1 109.50000 418.400000
5321 12826 5322 1 109.50000 418.400000
5321 12826 5323 1 109.50000 418.400000
5322 12826 5323 1 109.50000 418.400000
2764 12827 5326 1 109.50000 418.400000
2764 12827 5327 1 109.50000 418.400000
2764 12827 5328 1 109.50000 418.400000
5326 12827 5327 1 109.50000 418.400000
5326 12827 5328 1 109.50000 418.400000
5327 12827 5328 1 109.50000 418.400000
1792 12828 4654 1 109.50000 418.400000
1792 12828 5158 1 109.50000 418.400000
1792 12828 5329 1 109.50000 418.400000
4654 12828 5158 1 109.50000 418.400000
4654 12828 5329 1 109.50000 418.400000
5158 12828 5329 1 109.50000 418.400000
1317 12829 5330 1 109.50000 418.400000
1317 12829 5331 1 109.50000 418.400000
1317 12829 5332 1 109.50000 418.400000
5330 12829 5331 1 109.50000 418.400000
5330 12829 5332 1 109.50000 418.400000
5331 12829 5332 1 109.50000 418.400000
3331 12830 4327 1 109.50000 418.400000
3331 12830 5333 1 109.50000 418.400000
3331 12830 5334 1 109.50000 418.400000
4327 12830 5333 1 109.50000 418.400000
4327 12830 5334 1 109.50000 418.400000
5333 12830 5334 1 109.50000 418.400000
5336 12831 9892 1 109.50000 418.400000
5336 12831 10576 1 109.50000 418.400000
5336 12831 10681 1 109.50000 418.400000
9892 12831 10576 1 109.50000 418.400000
9892 12831 10681 1 109.50000 418.400000
10576 12831 10681 1 109.50000 418.400000
5308 12832 5339 1 109.50000 418.400000
5308 12832 5340 1 109.50000 418.400000
5308 12832 5341 1 109.50000 418.400000
5339 12832 5340 1 109.50000 418.400000
5339 12832 5341 1 109.50000 418.400000
5340 12832 5341 1 109.50000 418.400000
268 12833 1769 1 109.50000 418.400000
268 12833 5342 1 109.50000 418.400000
268 12833 5343 1 109.50000 418.400000
1769 12833 5342 1 109.50000 418.400000
1769 12833 5343 1 109.50000 418.400000
5342 12833 5343 1 109.50000 418.400000
454 12834 5345 1 109.50000 418.400000
454 12834 5346 1 109.50000 418.400000
454 12834 5347 1 109.50000 418.400000
5345 12834 5346 1 109.50000 418.400000
5345 12834 5347 1 109.50000 418.400000
5346 12834 5347 1 109.50000 418.400000
3794 12835 5348 1 109.50000 418.400000
3794 12835 5349 1 109.50000 418.400000
3794 12835 5350 1 109.50000 418.400000
5348 12835 5349 1 109.50000 418.400000
5348 12835 5350 1 109.50000 418.400000
5349 12835 5350 1 109.50000 418.400000
2025 12836 5351 1 109.50000 418.400000
2025 12836 6810 1 109.50000 418.400000
2025 12836 11149 1 109.50000 418.400000
5351 12836 6810 1 109.50000 418.400000
5351 12836 11149 1 109.50000 418.400000
6810 12836 11149 1 109.50000 418.400000
4901 12837 5155 1 109.50000 418.400000
4901 12837 5354 1 109.50000 418.400000
4901 12837 5355 1 109.50000 418.400000
5155 12837 5354 1 109.50000 418.400000
5155 12837 5355 1 109.50000 418.400000
5354 12837 5355 1 109.50000 418.400000
5357 12838 5358 1 109.50000 418.400000
5357 12838 5359 1 109.50000 418.400000
5357 12838 5360 1 109.50000 418.400000
5358 12838 5359 1 109.50000 418.400000
5358 12838 5360 1 109.50000 418.400000
5359 12838 5360 1 109.50000 418.400000
2087 12839 5361 1 109.50000 418.400000
2087 12839 5362 1 109.50000 418.400000
2087 12839 5363 1 109.50000 418.400000
5361 12839 5362 1 109.50000 418.400000
5361 12839 5363 1 109.50000 418.400000
5362 12839 5363 1 109.50000 418.400000
130 12840 1376 1 109.50000 418.400000
130 12840 5364 1 109.50000 418.400000
130 12840 5365 1 109.50000 418.400000
1376 12840 5364 1 109.50000 418.400000
1376 12840 5365 1 109.50000 418.400000
5364 12840 5365 1 109.50000 418.400000
4024 12841 5366 1 109.50000 418.400000
4024 12841 5367 1 109.50000 418.400000
4024 12841 5368 1 109.50000 418.400000
5366 12841 5367 1 109.50000 418.400000
5366 12841 5368 1 109.50000 418.400000
5367 12841 5368 1 109.50000 418.400000
3416 12842 5369 1 109.50000 418.400000
3416 12842 5370 1 109.50000 418.400000
3416 12842 5371 1 109.50000 418.400000
5369 12842 5370 1 109.50000 418.400000
5369 12842 5371 1 109.50000 418.400000
5370 12842 5371 1 109.50000 418.400000
1613 12843 2514 1 109.50000 418.400000
1613 12843 3459 1 109.50000 418.400000
1613 12843 5372 1 109.50000 418.400000
2514 12843 3459 1 109.50000 418.400000
2514 12843 5372 1 109.50000 418.400000
3459 12843 5372 1 109.50000 418.400000
5377 12844 5378 1 109.50000 418.400000
5377 12844 5419 1 109.50000 418.400000
5377 12844 7144 1 109.50000 418.400000
5378 12844 5419 1 109.50000 418.400000
5378 12844 7144 1 109.50000 418.400000
5419 12844 7144 1 109.50000 418.400000
2851 12845 4924 1 109.50000 418.400000
2851 12845 5379 1 109.50000 418.400000
2851 12845 5380 1 109.50000 418.400000
4924 12845 5379 1 109.50000 418.400000
4924 12845 5380 1 109.50000 418.400000
5379 12845 5380 1 109.50000 418.400000
858 12846 871 1 109.50000 418.400000
858 12846 966 1 109.50000 418.400000
858 12846 5381 1 109.50000 418.400000
871 12846 966 1 109.50000 418.400000
871 12846 5381 1 109.50000 418.400000
966 12846 5381 1 109.50000 418.400000
1147 12847 5382 1 109.50000 418.400000
1147 12847 5383 1 109.50000 418.400000
1147 12847 5384 1 109.50000 418.400000
5382 12847 5383 1 109.50000 418.400000
5382 12847 5384 1 109.50000 418.400000
5383 12847 5384 1 109.50000 418.400000
5181 12848 5385 1 109.50000 418.400000
5181 12848 5386 1 109.50000 418.400000
5181 12848 5387 1 109.50000 418.400000
5385 12848 5386 1 109.50000 418.400000
5385 12848 5387 1 109.50000 418.400000
5386 12848 5387 1 109.50000 418.400000
3806 12849 5388 1 109.50000 418.400000
3806 12849 5389 1 109.50000 418.400000
3806 12849 5390 1 109.50000 418.400000
5388 12849 5389 1 109.50000 418.400000
5388 12849 5390 1 109.50000 418.400000
5389 12849 5390 1 109.50000 418.400000
5395 12850 5396 1 109.50000 418.400000
5395 12850 5397 1 109.50000 418.400000
5395 12850 5398 1 109.50000 418.400000
5396 12850 5397 1 109.50000 418.400000
5396 12850 5398 1 109.50000 418.400000
5397 12850 5398 1 109.50000 418.400000
5399 12851 5400 1 109.50000 418.400000
5399 12851 5401 1 109.50000 418.400000
5399 12851 5402 1 109.50000 418.400000
5400 12851 5401 1 109.50000 418.400000
5400 12851 5402 1 109.50000 418.400000
5401 12851 5402 1 109.50000 418.400000
5276 12852 5403 1 109.50000 418.400000
5276 12852 5404 1 109.50000 418.400000
5276 12852 5405 1 109.50000 418.400000
5403 12852 5404 1 109.50000 418.400000
5403 12852 5405 1 109.50000 418.400000
5404 12852 5405 1 109.50000 418.400000
4678 12853 5406 1 109.50000 418.400000
4678 12853 5407 1 109.50000 418.400000
4678 12853 5408 1 109.50000 418.400000
5406 12853 5407 1 109.50000 418.400000
5406 12853 5408 1 109.50000 418.400000
5407 12853 5408 1 109.50000 418.400000
315 12854 1617 1 109.50000 418.400000
315 12854 5409 1 109.50000 418.400000
315 12854 5410 1 109.50000 418.400000
1617 12854 5409 1 109.50000 418.400000
1617 12854 5410 1 109.50000 418.400000
5409 12854 5410 1 109.50000 418.400000
2695 12855 5124 1 109.50000 418.400000
2695 12855 5411 1 109.50000 418.400000
2695 12855 5412 1 109.50000 418.400000
5124 12855 5411 1 109.50000 418.400000
5124 12855 5412 1 109.50000 418.400000
5411 12855 5412 1 109.50000 418.400000
2234 12856 5413 1 109.50000 418.400000
2234 12856 5414 1 109.50000 418.400000
2234 12856 11313 1 109.50000 418.400000
5413 12856 5414 1 109.50000 418.400000
5413 12856 11313 1 109.50000 418.400000
5414 12856 11313 1 109.50000 418.400000
5370 12857 5417 1 109.50000 418.400000
5370 12857 5418 1 109.50000 418.400000
5370 12857 5419 1 109.50000 418.400000
5417 12857 5418 1 109.50000 418.400000
5417 12857 5419 1 109.50000 418.400000
5418 12857 5419 1 109.50000 418.400000
5420 12858 5421 1 109.50000 418.400000
5420 12858 5422 1 109.50000 418.400000
5420 12858 5423 1 109.50000 418.400000
5421 12858 5422 1 109.50000 418.400000
5421 12858 5423 1 109.50000 418.400000
5422 12858 5423 1 109.50000 418.400000
2388 12859 5424 1 109.50000 418.400000
2388 12859 5425 1 109.50000 418.400000
2388 12859 5426 1 109.50000 418.400000
5424 12859 5425 1 109.50000 418.400000
5424 12859 5426 1 109.50000 418.400000
5425 12859 5426 1 109.50000 418.400000
5429 12860 5430 1 109.50000 418.400000
5429 12860 7418 1 109.50000 418.400000
5429 12860 9923 1 109.50000 418.400000
5430 12860 7418 1 109.50000 418.400000
5430 12860 9923 1 109.50000 418.400000
7418 12860 9923 1 109.50000 418.400000
3245 12861 5431 1 109.50000 418.400000
3245 12861 5432 1 109.50000 418.400000
3245 12861 5433 1 109.50000 418.400000
5431 12861 5432 1 109.50000 418.400000
5431 12861 5433 1 109.50000 418.400000
5432 12861 5433 1 109.50000 418.400000
3037 12862 5434 1 109.50000 418.400000
3037 12862 5435 1 109.50000 418.400000
3037 12862 5436 1 109.50000 418.400000
5434 12862 5435 1 109.50000 418.400000
5434 12862 5436 1 109.50000 418.400000
5435 12862 5436 1 109.50000 418.400000
5437 12863 5438 1 109.50000 418.400000
5437 12863 5439 1 109.50000 418.400000
5437 12863 9159 1 109.50000 418.400000
5438 12863 5439 1 109.50000 418.400000
5438 12863 9159 1 109.50000 418.400000
5439 12863 9159 1 109.50000 418.400000
1129 12864 5441 1 109.50000 418.400000
1129 12864 5442 1 109.50000 418.400000
1129 12864 5443 1 109.50000 418.400000
5441 12864 5442 1 109.50000 418.400000
5441 12864 5443 1 109.50000 418.400000
5442 12864 5443 1 109.50000 418.400000
348 12865 5444 1 109.50000 418.400000
348 12865 11235 1 109.50000 418.400000
348 12865 11332 1 109.50000 418.400000
5444 12865 11235 1 109.50000 418.400000
5444 12865 11332 1 109.50000 418.400000
11235 12865 11332 1 109.50000 418.400000
2527 12866 5446 1 109.50000 418.400000
2527 12866 5447 1 109.50000 418.400000
2527 12866 8593 1 109.50000 418.400000
5446 12866 5447 1 109.50000 418.400000
5446 12866 8593 1 109.50000 418.400000
5447 12866 8593 1 109.50000 418.400000
5318 12867 5448 1 109.50000 418.400000
5318 12867 5449 1 109.50000 418.400000
5318 12867 9465 1 109.50000 418.400000
5448 12867 5449 1 109.50000 418.400000
5448 12867 9465 1 109.50000 418.400000
5449 12867 9465 1 109.50000 418.400000
1720 12868 1721 1 109.50000 418.400000
1720 12868 1722 1 109.50000 418.400000
1720 12868 5450 1 109.50000 418.400000
1721 12868 1722 1 109.50000 418.400000
1721 12868 5450 1 109.50000 418.400000
1722 12868 5450 1 109.50000 418.400000
484 12869 5453 1 109.50000 418.400000
484 12869 5454 1 109.50000 418.400000
484 12869 5455 1 109.50000 418.400000
5453 12869 5454 1 109.50000 418.400000
5453 12869 5455 1 109.50000 418.400000
5454 12869 5455 1 109.50000 418.400000
5456 12870 5457 1 109.50000 418.400000
5456 12870 5458 1 109.50000 418.400000
5456 12870 5459 1 109.50000 418.400000
5457 12870 5458 1 109.50000 418.400000
5457 12870 5459 1 109.50000 418.400000
5458 12870 5459 1 109.50000 418.400000
5460 12871 5461 1 109.50000 418.400000
5460 12871 5462 1 109.50000 418.400000
5460 12871 5463 1 109.50000 418.400000
5461 12871 5462 1 109.50000 418.400000
5461 12871 5463 1 109.50000 418.400000
5462 12871 5463 1 109.50000 418.400000
246 12872 682 1 109.50000 418.400000
246 12872 3393 1 109.50000 418.400000
246 12872 3439 1 109.50000 418.400000
682 12872 3393 1 109.50000 418.400000
682 12872 3439 1 109.50000 418.400000
3393 12872 3439 1 109.50000 418.400000
4891 12873 5404 1 109.50000 418.400000
4891 12873 5465 1 109.50000 418.400000
4891 12873 5466 1 109.50000 418.400000
5404 12873 5465 1 109.50000 418.400000
5404 12873 5466 1 109.50000 418.400000
5465 12873 5466 1 109.50000 418.400000
2670 12874 4756 1 109.50000 418.400000
2670 12874 5470 1 109.50000 418.400000
2670 12874 5471 1 109.50000 418.400000
4756 12874 5470 1 109.50000 418.400000
4756 12874 5471 1 109.50000 418.400000
5470 12874 5471 1 109.50000 418.400000
542 12875 2211 1 109.50000 418.400000
542 12875 5474 1 109.50000 418.400000
542 12875 5475 1 109.50000 418.400000
2211 12875 5474 1 109.50000 418.400000
2211 12875 5475 1 109.50000 418.400000
5474 12875 5475 1 109.50000 418.400000
902 12876 903 1 109.50000 418.400000
902 12876 904 1 109.50000 418.400000
902 12876 905 1 109.50000 418.400000
903 12876 904 1 109.50000 418.400000
903 12876 905 1 109.50000 418.400000
904 12876 905 1 109.50000 418.400000
2356 12877 3115 1 109.50000 418.400000
2356 12877 5477 1 109.50000 418.400000
2356 12877 5478 1 109.50000 418.400000
3115 12877 5477 1 109.50000 418.400000
3115 12877 5478 1 109.50000 418.400000
5477 12877 5478 1 109.50000 418.400000
5479 12878 5480 1 109.50000 418.400000
5479 12878 5481 1 109.50000 418.400000
5479 12878 5482 1 109.50000 418.400000
5480 12878 5481 1 109.50000 418.400000
5480 12878 5482 1 109.50000 418.400000
5481 12878 5482 1 109.50000 418.400000
3743 12879 5483 1 109.50000 418.400000
3743 12879 5484 1 109.50000 418.400000
3743 12879 5485 1 109.50000 418.400000
5483 12879 5484 1 109.50000 418.400000
5483 12879 5485 1 109.50000 418.400000
5484 12879 5485 1 109.50000 418.400000
4085 12880 5486 1 109.50000 418.400000
4085 12880 5487 1 109.50000 418.400000
4085 12880 11174 1 109.50000 418.400000
5486 12880 5487 1 109.50000 418.400000
5486 12880 11174 1 109.50000 418.400000
5487 12880 11174 1 109.50000 418.400000
1791 12881 5488 1 109.50000 418.400000
1791 12881 5489 1 109.50000 418.400000
1791 12881 5490 1 109.50000 418.400000
5488 12881 5489 1 109.50000 418.400000
5488 12881 5490 1 109.50000 418.400000
5489 12881 5490 1 109.50000 418.400000
1779 12882 5491 1 109.50000 418.400000
1779 12882 5492 1 109.50000 418.400000
1779 12882 5493 1 109.50000 418.400000
5491 12882 5492 1 109.50000 418.400000
5491 12882 5493 1 109.50000 418.400000
5492 12882 5493 1 109.50000 418.400000
2236 12883 2625 1 109.50000 418.400000
2236 12883 5494 1 109.50000 418.400000
2236 12883 5495 1 109.50000 418.400000
2625 12883 5494 1 109.50000 418.400000
2625 12883 5495 1 109.50000 418.400000
5494 12883 5495 1 109.50000 418.400000
4459 12884 4750 1 109.50000 418.400000
4459 12884 5499 1 109.50000 418.400000
4459 12884 5500 1 109.50000 418.400000
4750 12884 5499 1 109.50000 418.400000
4750 12884 5500 1 109.50000 418.400000
5499 12884 5500 1 109.50000 418.400000
3448 12885 5504 1 109.50000 418.400000
3448 12885 5505 1 109.50000 418.400000
3448 12885 5506 1 109.50000 418.400000
5504 12885 5505 1 109.50000 418.400000
5504 12885 5506 1 109.50000 418.400000
5505 12885 5506 1 109.50000 418.400000
5357 12886 5507 1 109.50000 418.400000
5357 12886 5508 1 109.50000 418.400000
5357 12886 5509 1 109.50000 418.400000
5507 12886 5508 1 109.50000 418.400000
5507 12886 5509 1 109.50000 418.400000
5508 12886 5509 1 109.50000 418.400000
3575 12887 3876 1 109.50000 418.400000
3575 12887 5510 1 109.50000 418.400000
3575 12887 5511 1 109.50000 418.400000
3876 12887 5510 1 109.50000 418.400000
3876 12887 5511 1 109.50000 418.400000
5510 12887 5511 1 109.50000 418.400000
5512 12888 5513 1 109.50000 418.400000
5512 12888 5514 1 109.50000 418.400000
5512 12888 5515 1 109.50000 418.400000
5513 12888 5514 1 109.50000 418.400000
5513 12888 5515 1 109.50000 418.400000
5514 12888 5515 1 109.50000 418.400000
1677 12889 5517 1 109.50000 418.400000
1677 12889 5518 1 109.50000 418.400000
1677 12889 5519 1 109.50000 418.400000
5517 12889 5518 1 109.50000 418.400000
5517 12889 5519 1 109.50000 418.400000
5518 12889 5519 1 109.50000 418.400000
5156 12890 5520 1 109.50000 418.400000
5156 12890 5521 1 109.50000 418.400000
5156 12890 5522 1 109.50000 418.400000
5520 12890 5521 1 109.50000 418.400000
5520 12890 5522 1 109.50000 418.400000
5521 12890 5522 1 109.50000 418.400000
546 12891 3176 1 109.50000 418.400000
546 12891 5523 1 109.50000 418.400000
546 12891 5524 1 109.50000 418.400000
3176 12891 5523 1 109.50000 418.400000
3176 12891 5524 1 109.50000 418.400000
5523 12891 5524 1 109.50000 418.400000
1062 12892 1503 1 109.50000 418.400000
1062 12892 5439 1 109.50000 418.400000
1062 12892 5525 1 109.50000 418.400000
1503 12892 5439 1 109.50000 418.400000
1503 12892 5525 1 109.50000 418.400000
5439 12892 5525 1 109.50000 418.400000
5528 12893 5529 1 109.50000 418.400000
5528 12893 5530 1 109.50000 418.400000
5528 12893 5531 1 109.50000 418.400000
5529 12893 5530 1 109.50000 418.400000
5529 12893 5531 1 109.50000 418.400000
5530 12893 5531 1 109.50000 418.400000
4774 12894 5532 1 109.50000 418.400000
4774 12894 5533 1 109.50000 418.400000
4774 12894 5534 1 109.50000 418.400000
5532 12894 5533 1 109.50000 418.400000
5532 12894 5534 1 109.50000 418.400000
5533 12894 5534 1 109.50000 418.400000
2244 12895 2872 1 109.50000 418.400000
2244 12895 5535 1 109.50000 418.400000
2244 12895 5536 1 109.50000 418.400000
2872 12895 5535 1 109.50000 418.400000
2872 12895 5536 1 109.50000 418.400000
5535 12895 5536 1 109.50000 418.400000
2081 12896 5537 1 109.50000 418.400000
2081 12896 5538 1 109.50000 418.400000
2081 12896 5539 1 109.50000 418.400000
5537 12896 5538 1 109.50000 418.400000
5537 12896 5539 1 109.50000 418.400000
5538 12896 5539 1 109.50000 418.400000
5540 12897 5541 1 109.50000 418.400000
5540 12897 11236 1 109.50000 418.400000
5540 12897 11315 1 109.50000 418.400000
5541 12897 11236 1 109.50000 418.400000
5541 12897 11315 1 109.50000 418.400000
11236 12897 11315 1 109.50000 418.400000
1863 12898 2232 1 109.50000 418.400000
1863 12898 5542 1 109.50000 418.400000
1863 12898 5543 1 109.50000 418.400000
2232 12898 5542 1 109.50000 418.400000
2232 12898 5543 1 109.50000 418.400000
5542 12898 5543 1 109.50000 418.400000
5544 12899 5546 1 109.50000 418.400000
5544 12899 5547 1 109.50000 418.400000
5544 12899 7953 1 109.50000 418.400000
5546 12899 5547 1 109.50000 418.400000
5546 12899 7953 1 109.50000 418.400000
5547 12899 7953 1 109.50000 418.400000
3291 12900 3293 1 109.50000 418.400000
3291 12900 5548 1 109.50000 418.400000
3291 12900 5549 1 109.50000 418.400000
3293 12900 5548 1 109.50000 418.400000
3293 12900 5549 1 109.50000 418.400000
5548 12900 5549 1 109.50000 418.400000
5553 12901 5554 1 109.50000 418.400000
5553 12901 5555 1 109.50000 418.400000
5553 12901 5556 1 109.50000 418.400000
5554 12901 5555 1 109.50000 418.400000
5554 12901 5556 1 109.50000 418.400000
5555 12901 5556 1 109.50000 418.400000
1251 12902 5557 1 109.50000 418.400000
1251 12902 5558 1 109.50000 418.400000
1251 12902 5559 1 109.50000 418.400000
5557 12902 5558 1 109.50000 418.400000
5557 12902 5559 1 109.50000 418.400000
5558 12902 5559 1 109.50000 418.400000
2475 12903 3749 1 109.50000 418.400000
2475 12903 5560 1 109.50000 418.400000
2475 12903 5561 1 109.50000 418.400000
3749 12903 5560 1 109.50000 418.400000
3749 12903 5561 1 109.50000 418.400000
5560 12903 5561 1 109.50000 418.400000
2257 12904 5562 1 109.50000 418.400000
2257 12904 5563 1 109.50000 418.400000
2257 12904 5564 1 109.50000 418.400000
5562 12904 5563 1 109.50000 418.400000
5562 12904 5564 1 109.50000 418.400000
5563 12904 5564 1 109.50000 418.400000
3056 12905 5565 1 109.50000 418.400000
3056 12905 5566 1 109.50000 418.400000
3056 12905 5567 1 109.50000 418.400000
5565 12905 5566 1 109.50000 418.400000
5565 12905 5567 1 109.50000 418.400000
5566 12905 5567 1 109.50000 418.400000
1427 12906 5568 1 109.50000 418.400000
1427 12906 5569 1 109.50000 418.400000
1427 12906 5570 1 109.50000 418.400000
5568 12906 5569 1 109.50000 418.400000
5568 12906 5570 1 109.50000 418.400000
5569 12906 5570 1 109.50000 418.400000
2577 12907 3565 1 109.50000 418.400000
2577 12907 3648 1 109.50000 418.400000
2577 12907 5571 1 109.50000 418.400000
3565 12907 3648 1 109.50000 418.400000
3565 12907 5571 1 109.50000 418.400000
3648 12907 5571 1 109.50000 418.400000
1611 12908 5574 1 109.50000 418.400000
1611 12908 5575 1 109.50000 418.400000
1611 12908 5576 1 109.50000 418.400000
5574 12908 5575 1 109.50000 418.400000
5574 12908 5576 1 109.50000 418.400000
5575 12908 5576 1 109.50000 418.400000
4927 12909 5582 1 109.50000 418.400000
4927 12909 5583 1 109.50000 418.400000
4927 12909 5584 1 109.50000 418.400000
5582 12909 5583 1 109.50000 418.400000
5582 12909 5584 1 109.50000 418.400000
5583 12909 5584 1 109.50000 418.400000
3186 12910 4354 1 109.50000 418.400000
3186 12910 5585 1 109.50000 418.400000
3186 12910 5586 1 109.50000 418.400000
4354 12910 5585 1 109.50000 418.400000
4354 12910 5586 1 109.50000 418.400000
5585 12910 5586 1 109.50000 418.400000
5587 12911 5588 1 109.50000 418.400000
5587 12911 5589 1 109.50000 418.400000
5587 12911 5590 1 109.50000 418.400000
5588 12911 5589 1 109.50000 418.400000
5588 12911 5590 1 109.50000 418.400000
5589 12911 5590 1 109.50000 418.400000
4079 12912 5591 1 109.50000 418.400000
4079 12912 5592 1 109.50000 418.400000
4079 12912 5593 1 109.50000 418.400000
5591 12912 5592 1 109.50000 418.400000
5591 12912 5593 1 109.50000 418.400000
5592 12912 5593 1 109.50000 418.400000
5594 12913 5595 1 109.50000 418.400000
5594 12913 5596 1 109.50000 418.400000
5594 12913 5597 1 109.50000 418.400000
5595 12913 5596 1 109.50000 418.400000
5595 12913 5597 1 109.50000 418.400000
5596 12913 5597 1 109.50000 418.400000
1426 12914 5598 1 109.50000 418.400000
1426 12914 5599 1 109.50000 418.400000
1426 12914 5820 1 109.50000 418.400000
5598 12914 5599 1 109.50000 418.400000
5598 12914 5820 1 109.50000 418.400000
5599 12914 5820 1 109.50000 418.400000
2277 12915 5600 1 109.50000 418.400000
2277 12915 5601 1 109.50000 418.400000
2277 12915 7655 1 109.50000 418.400000
5600 12915 5601 1 109.50000 418.400000
5600 12915 7655 1 109.50000 418.400000
5601 12915 7655 1 109.50000 418.400000
248 12916 5602 1 109.50000 418.400000
248 12916 5603 1 109.50000 418.400000
248 12916 5604 1 109.50000 418.400000
5602 12916 5603 1 109.50000 418.400000
5602 12916 5604 1 109.50000 418.400000
5603 12916 5604 1 109.50000 418.400000
5605 12917 5606 1 109.50000 418.400000
5605 12917 5607 1 109.50000 418.400000
5605 12917 5608 1 109.50000 418.400000
5606 12917 5607 1 109.50000 418.400000
5606 12917 5608 1 109.50000 418.400000
5607 12917 5608 1 109.50000 418.400000
1514 12918 5609 1 109.50000 418.400000
1514 12918 5610 1 109.50000 418.400000
1514 12918 5611 1 109.50000 418.400000
5609 12918 5610 1 109.50000 418.400000
5609 12918 5611 1 109.50000 418.400000
5610 12918 5611 1 109.50000 418.400000
5063 12919 5612 1 109.50000 418.400000
5063 12919 5613 1 109.50000 418.400000
5063 12919 5614 1 109.50000 418.400000
5612 12919 5613 1 109.50000 418.400000
5612 12919 5614 1 109.50000 418.400000
5613 12919 5614 1 109.50000 418.400000
5570 12920 5615 1 109.50000 418.400000
5570 12920 5616 1 109.50000 418.400000
5570 12920 5617 1 109.50000 418.400000
5615 12920 5616 1 109.50000 418.400000
5615 12920 5617 1 109.50000 418.400000
5616 12920 5617 1 109.50000 418.400000
5618 12921 5619 1 109.50000 418.400000
5618 12921 5620 1 109.50000 418.400000
5618 12921 5621 1 109.50000 418.400000
5619 12921 5620 1 109.50000 418.400000
5619 12921 5621 1 109.50000 418.400000
5620 12921 5621 1 109.50000 418.400000
5622 12922 5623 1 109.50000 418.400000
5622 12922 5624 1 109.50000 418.400000
5622 12922 5625 1 109.50000 418.400000
5623 12922 5624 1 109.50000 418.400000
5623 12922 5625 1 109.50000 418.400000
5624 12922 5625 1 109.50000 418.400000
759 12923 3440 1 109.50000 418.400000
759 12923 3917 1 109.50000 418.400000
759 12923 5626 1 109.50000 418.400000
3440 12923 3917 1 109.50000 418.400000
3440 12923 5626 1 109.50000 418.400000
3917 12923 5626 1 109.50000 418.400000
1793 12924 3733 1 109.50000 418.400000
1793 12924 5627 1 109.50000 418.400000
1793 12924 5628 1 109.50000 418.400000
3733 12924 5627 1 109.50000 418.400000
3733 12924 5628 1 109.50000 418.400000
5627 12924 5628 1 109.50000 418.400000
1448 12925 4596 1 109.50000 418.400000
1448 12925 5629 1 109.50000 418.400000
1448 12925 8855 1 109.50000 418.400000
4596 12925 5629 1 109.50000 418.400000
4596 12925 8855 1 109.50000 418.400000
5629 12925 8855 1 109.50000 418.400000
5631 12926 5633 1 109.50000 418.400000
5631 12926 5634 1 109.50000 418.400000
5631 12926 7674 1 109.50000 418.400000
5633 12926 5634 1 109.50000 418.400000
5633 12926 7674 1 109.50000 418.400000
5634 12926 7674 1 109.50000 418.400000
5635 12927 5636 1 109.50000 418.400000
5635 12927 5637 1 109.50000 418.400000
5635 12927 5638 1 109.50000 418.400000
5636 12927 5637 1 109.50000 418.400000
5636 12927 5638 1 109.50000 418.400000
5637 12927 5638 1 109.50000 418.400000
4764 12928 5639 1 109.50000 418.400000
4764 12928 5640 1 109.50000 418.400000
4764 12928 5641 1 109.50000 418.400000
5639 12928 5640 1 109.50000 418.400000
5639 12928 5641 1 109.50000 418.400000
5640 12928 5641 1 109.50000 418.400000
5642 12929 5643 1 109.50000 418.400000
5642 12929 5644 1 109.50000 418.400000
5642 12929 5645 1 109.50000 418.400000
5643 12929 5644 1 109.50000 418.400000
5643 12929 5645 1 109.50000 418.400000
5644 12929 5645 1 109.50000 418.400000
2210 12930 5646 1 109.50000 418.400000
2210 12930 5647 1 109.50000 418.400000
2210 12930 5648 1 109.50000 418.400000
5646 12930 5647 1 109.50000 418.400000
5646 12930 5648 1 109.50000 418.400000
5647 12930 5648 1 109.50000 418.400000
5649 12931 5650 1 109.50000 418.400000
5649 12931 5651 1 109.50000 418.400000
5649 12931 5652 1 109.50000 418.400000
5650 12931 5651 1 109.50000 418.400000
5650 12931 5652 1 109.50000 418.400000
5651 12931 5652 1 109.50000 418.400000
1837 12932 3842 1 109.50000 418.400000
1837 12932 5654 1 109.50000 418.400000
1837 12932 5655 1 109.50000 418.400000
3842 12932 5654 1 109.50000 418.400000
3842 12932 5655 1 109.50000 418.400000
5654 12932 5655 1 109.50000 418.400000
5656 12933 5657 1 109.50000 418.400000
5656 12933 5658 1 109.50000 418.400000
5656 12933 5659 1 109.50000 418.400000
5657 12933 5658 1 109.50000 418.400000
5657 12933 5659 1 109.50000 418.400000
5658 12933 5659 1 109.50000 418.400000
4787 12934 5661 1 109.50000 418.400000
4787 12934 5662 1 109.50000 418.400000
4787 12934 5663 1 109.50000 418.400000
5661 12934 5662 1 109.50000 418.400000
5661 12934 5663 1 109.50000 418.400000
5662 12934 5663 1 109.50000 418.400000
1816 12935 5664 1 109.50000 418.400000
1816 12935 5665 1 109.50000 418.400000
1816 12935 5666 1 109.50000 418.400000
5664 12935 5665 1 109.50000 418.400000
5664 12935 5666 1 109.50000 418.400000
5665 12935 5666 1 109.50000 418.400000
3091 12936 5667 1 109.50000 418.400000
3091 12936 5668 1 109.50000 418.400000
3091 12936 5669 1 109.50000 418.400000
5667 12936 5668 1 109.50000 418.400000
5667 12936 5669 1 109.50000 418.400000
5668 12936 5669 1 109.50000 418.400000
5670 12937 5671 1 109.50000 418.400000
5670 12937 5672 1 109.50000 418.400000
5670 12937 5673 1 109.50000 418.400000
5671 12937 5672 1 109.50000 418.400000
5671 12937 5673 1 109.50000 418.400000
5672 12937 5673 1 109.50000 418.400000
5674 12938 5675 1 109.50000 418.400000
5674 12938 5676 1 109.50000 418.400000
5674 12938 5677 1 109.50000 418.400000
5675 12938 5676 1 109.50000 418.400000
5675 12938 5677 1 109.50000 418.400000
5676 12938 5677 1 109.50000 418.400000
3103 12939 5678 1 109.50000 418.400000
3103 12939 5679 1 109.50000 418.400000
3103 12939 5680 1 109.50000 418.400000
5678 12939 5679 1 109.50000 418.400000
5678 12939 5680 1 109.50000 418.400000
5679 12939 5680 1 109.50000 418.400000
2882 12940 3828 1 109.50000 418.400000
2882 12940 5681 1 109.50000 418.400000
2882 12940 5682 1 109.50000 418.400000
3828 12940 5681 1 109.50000 418.400000
3828 12940 5682 1 109.50000 418.400000
5681 12940 5682 1 109.50000 418.400000
483 12941 5683 1 109.50000 418.400000
483 12941 5684 1 109.50000 418.400000
483 12941 5685 1 109.50000 418.400000
5683 12941 5684 1 109.50000 418.400000
5683 12941 5685 1 109.50000 418.400000
5684 12941 5685 1 109.50000 418.400000
1903 12942 5686 1 109.50000 418.400000
1903 12942 5687 1 109.50000 418.400000
1903 12942 5688 1 109.50000 418.400000
5686 12942 5687 1 109.50000 418.400000
5686 12942 5688 1 109.50000 418.400000
5687 12942 5688 1 109.50000 418.400000
5205 12943 5521 1 109.50000 418.400000
5205 12943 5689 1 109.50000 418.400000
5205 12943 5690 1 109.50000 418.400000
5521 12943 5689 1 109.50000 418.400000
5521 12943 5690 1 109.50000 418.400000
5689 12943 5690 1 109.50000 418.400000
5396 12944 5691 1 109.50000 418.400000
5396 12944 5692 1 109.50000 418.400000
5396 12944 5693 1 109.50000 418.400000
5691 12944 5692 1 109.50000 418.400000
5691 12944 5693 1 109.50000 418.400000
5692 12944 5693 1 109.50000 418.400000
1928 12945 1931 1 109.50000 418.400000
1928 12945 2350 1 109.50000 418.400000
1928 12945 2352 1 109.50000 418.400000
1931 12945 2350 1 109.50000 418.400000
1931 12945 2352 1 109.50000 418.400000
2350 12945 2352 1 109.50000 418.400000
5696 12946 5697 1 109.50000 418.400000
5696 12946 5698 1 109.50000 418.400000
5696 12946 5699 1 109.50000 418.400000
5697 12946 5698 1 109.50000 418.400000
5697 12946 5699 1 109.50000 418.400000
5698 12946 5699 1 109.50000 418.400000
5317 12947 5700 1 109.50000 418.400000
5317 12947 5701 1 109.50000 418.400000
5317 12947 5702 1 109.50000 418.400000
5700 12947 5701 1 109.50000 418.400000
5700 12947 5702 1 109.50000 418.400000
5701 12947 5702 1 109.50000 418.400000
5214 12948 5703 1 109.50000 418.400000
5214 12948 5704 1 109.50000 418.400000
5214 12948 5705 1 109.50000 418.400000
5703 12948 5704 1 109.50000 418.400000
5703 12948 5705 1 109.50000 418.400000
5704 12948 5705 1 109.50000 418.400000
701 12949 5707 1 109.50000 418.400000
701 12949 5708 1 109.50000 418.400000
701 12949 5844 1 109.50000 418.400000
5707 12949 5708 1 109.50000 418.400000
5707 12949 5844 1 109.50000 418.400000
5708 12949 5844 1 109.50000 418.400000
3253 12950 4928 1 109.50000 418.400000
3253 12950 5709 1 109.50000 418.400000
3253 12950 5710 1 109.50000 418.400000
4928 12950 5709 1 109.50000 418.400000
4928 12950 5710 1 109.50000 418.400000
5709 12950 5710 1 109.50000 418.400000
1399 12951 1539 1 109.50000 418.400000
1399 12951 5711 1 109.50000 418.400000
1399 12951 5712 1 109.50000 418.400000
1539 12951 5711 1 109.50000 418.400000
1539 12951 5712 1 109.50000 418.400000
5711 12951 5712 1 109.50000 418.400000
5718 12952 5719 1 109.50000 418.400000
5718 12952 5720 1 109.50000 418.400000
5718 12952 5721 1 109.50000 418.400000
5719 12952 5720 1 109.50000 418.400000
5719 12952 5721 1 109.50000 418.400000
5720 12952 5721 1 109.50000 418.400000
2011 12953 5722 1 109.50000 418.400000
2011 12953 5723 1 109.50000 418.400000
2011 12953 5724 1 109.50000 418.400000
5722 12953 5723 1 109.50000 418.400000
5722 12953 5724 1 109.50000 418.400000
5723 12953 5724 1 109.50000 418.400000
3045 12954 5728 1 109.50000 418.400000
3045 12954 5729 1 109.50000 418.400000
3045 12954 5730 1 109.50000 418.400000
5728 12954 5729 1 109.50000 418.400000
5728 12954 5730 1 109.50000 418.400000
5729 12954 5730 1 109.50000 418.400000
269 12955 3175 1 109.50000 418.400000
269 12955 5731 1 109.50000 418.400000
269 12955 5732 1 109.50000 418.400000
3175 12955 5731 1 109.50000 418.400000
3175 12955 5732 1 109.50000 418.400000
5731 12955 5732 1 109.50000 418.400000
728 12956 2417 1 109.50000 418.400000
728 12956 5733 1 109.50000 418.400000
728 12956 5734 1 109.50000 418.400000
2417 12956 5733 1 109.50000 418.400000
2417 12956 5734 1 109.50000 418.400000
5733 12956 5734 1 109.50000 418.400000
1496 12957 4013 1 109.50000 418.400000
1496 12957 5735 1 109.50000 418.400000
1496 12957 5736 1 109.50000 418.400000
4013 12957 5735 1 109.50000 418.400000
4013 12957 5736 1 109.50000 418.400000
5735 12957 5736 1 109.50000 418.400000
5738 12958 5739 1 109.50000 418.400000
5738 12958 5740 1 109.50000 418.400000
5738 12958 5741 1 109.50000 418.400000
5739 12958 5740 1 109.50000 418.400000
5739 12958 5741 1 109.50000 418.400000
5740 12958 5741 1 109.50000 418.400000
5742 12959 5743 1 109.50000 418.400000
5742 12959 10471 1 109.50000 418.400000
5742 12959 10843 1 109.50000 418.400000
5743 12959 10471 1 109.50000 418.400000
5743 12959 10843 1 109.50000 418.400000
10471 12959 10843 1 109.50000 418.400000
98 12960 2069 1 109.50000 418.400000
98 12960 5745 1 109.50000 418.400000
98 12960 5746 1 109.50000 418.400000
2069 12960 5745 1 109.50000 418.400000
2069 12960 5746 1 109.50000 418.400000
5745 12960 5746 1 109.50000 418.400000
2114 12961 5384 1 109.50000 418.400000
2114 12961 5747 1 109.50000 418.400000
2114 12961 5748 1 109.50000 418.400000
5384 12961 5747 1 109.50000 418.400000
5384 12961 5748 1 109.50000 418.400000
5747 12961 5748 1 109.50000 418.400000
2251 12962 3619 1 109.50000 418.400000
2251 12962 5749 1 109.50000 418.400000
2251 12962 5750 1 109.50000 418.400000
3619 12962 5749 1 109.50000 418.400000
3619 12962 5750 1 109.50000 418.400000
5749 12962 5750 1 109.50000 418.400000
389 12963 5753 1 109.50000 418.400000
389 12963 5754 1 109.50000 418.400000
389 12963 5755 1 109.50000 418.400000
5753 12963 5754 1 109.50000 418.400000
5753 12963 5755 1 109.50000 418.400000
5754 12963 5755 1 109.50000 418.400000
3267 12964 5756 1 109.50000 418.400000
3267 12964 5757 1 109.50000 418.400000
3267 12964 5758 1 109.50000 418.400000
5756 12964 5757 1 109.50000 418.400000
5756 12964 5758 1 109.50000 418.400000
5757 12964 5758 1 109.50000 418.400000
3171 12965 5759 1 109.50000 418.400000
3171 12965 7528 1 109.50000 418.400000
3171 12965 9740 1 109.50000 418.400000
5759 12965 7528 1 109.50000 418.400000
5759 12965 9740 1 109.50000 418.400000
7528 12965 9740 1 109.50000 418.400000
5761 12966 5762 1 109.50000 418.400000
5761 12966 5763 1 109.50000 418.400000
5761 12966 10075 1 109.50000 418.400000
5762 12966 5763 1 109.50000 418.400000
5762 12966 10075 1 109.50000 418.400000
5763 12966 10075 1 109.50000 418.400000
1983 12967 3789 1 109.50000 418.400000
1983 12967 5765 1 109.50000 418.400000
1983 12967 5766 1 109.50000 418.400000
3789 12967 5765 1 109.50000 418.400000
3789 12967 5766 1 109.50000 418.400000
5765 12967 5766 1 109.50000 418.400000
5767 12968 5768 1 109.50000 418.400000
5767 12968 5769 1 109.50000 418.400000
5767 12968 5770 1 109.50000 418.400000
5768 12968 5769 1 109.50000 418.400000
5768 12968 5770 1 109.50000 418.400000
5769 12968 5770 1 109.50000 418.400000
923 12969 2932 1 109.50000 418.400000
923 12969 4429 1 109.50000 418.400000
923 12969 5771 1 109.50000 418.400000
2932 12969 4429 1 109.50000 418.400000
2932 12969 5771 1 109.50000 418.400000
4429 12969 5771 1 109.50000 418.400000
2802 12970 4638 1 109.50000 418.400000
2802 12970 5772 1 109.50000 418.400000
2802 12970 5773 1 109.50000 418.400000
4638 12970 5772 1 109.50000 418.400000
4638 12970 5773 1 109.50000 418.400000
5772 12970 5773 1 109.50000 418.400000
1747 12971 5777 1 109.50000 418.400000
1747 12971 5778 1 109.50000 418.400000
1747 12971 5779 1 109.50000 418.400000
5777 12971 5778 1 109.50000 418.400000
5777 12971 5779 1 109.50000 418.400000
5778 12971 5779 1 109.50000 418.400000
5677 12972 5780 1 109.50000 418.400000
5677 12972 5781 1 109.50000 418.400000
5677 12972 5782 1 109.50000 418.400000
5780 12972 5781 1 109.50000 418.400000
5780 12972 5782 1 109.50000 418.400000
5781 12972 5782 1 109.50000 418.400000
209 12973 5783 1 109.50000 418.400000
209 12973 5784 1 109.50000 418.400000
209 12973 5785 1 109.50000 418.400000
5783 12973 5784 1 109.50000 418.400000
5783 12973 5785 1 109.50000 418.400000
5784 12973 5785 1 109.50000 418.400000
3172 12974 3246 1 109.50000 418.400000
3172 12974 4829 1 109.50000 418.400000
3172 12974 5786 1 109.50000 418.400000
3246 12974 4829 1 109.50000 418.400000
3246 12974 5786 1 109.50000 418.400000
4829 12974 5786 1 109.50000 418.400000
5787 12975 5788 1 109.50000 418.400000
5787 12975 5789 1 109.50000 418.400000
5787 12975 5790 1 109.50000 418.400000
5788 12975 5789 1 109.50000 418.400000
5788 12975 5790 1 109.50000 418.400000
5789 12975 5790 1 109.50000 418.400000
4449 12976 5792 1 109.50000 418.400000
4449 12976 5793 1 109.50000 418.400000
4449 12976 7194 1 109.50000 418.400000
5792 12976 5793 1 109.50000 418.400000
5792 12976 7194 1 109.50000 418.400000
5793 12976 7194 1 109.50000 418.400000
5795 12977 5796 1 109.50000 418.400000
5795 12977 5797 1 109.50000 418.400000
5795 12977 8314 1 109.50000 418.400000
5796 12977 5797 1 109.50000 418.400000
5796 12977 8314 1 109.50000 418.400000
5797 12977 8314 1 109.50000 418.400000
5798 12978 5799 1 109.50000 418.400000
5798 12978 5800 1 109.50000 418.400000
5798 12978 5801 1 109.50000 418.400000
5799 12978 5800 1 109.50000 418.400000
5799 12978 5801 1 109.50000 418.400000
5800 12978 5801 1 109.50000 418.400000
193 12979 691 1 109.50000 418.400000
193 12979 2842 1 109.50000 418.400000
193 12979 5802 1 109.50000 418.400000
691 12979 2842 1 109.50000 418.400000
691 12979 5802 1 109.50000 418.400000
2842 12979 5802 1 109.50000 418.400000
2480 12980 5803 1 109.50000 418.400000
2480 12980 5804 1 109.50000 418.400000
2480 12980 5805 1 109.50000 418.400000
5803 12980 5804 1 109.50000 418.400000
5803 12980 5805 1 109.50000 418.400000
5804 12980 5805 1 109.50000 418.400000
5806 12981 5807 1 109.50000 418.400000
5806 12981 5808 1 109.50000 418.400000
5806 12981 5809 1 109.50000 418.400000
5807 12981 5808 1 109.50000 418.400000
5807 12981 5809 1 109.50000 418.400000
5808 12981 5809 1 109.50000 418.400000
3520 12982 3877 1 109.50000 418.400000
3520 12982 5810 1 109.50000 418.400000
3520 12982 5811 1 109.50000 418.400000
3877 12982 5810 1 109.50000 418.400000
3877 12982 5811 1 109.50000 418.400000
5810 12982 5811 1 109.50000 418.400000
3593 12983 5812 1 109.50000 418.400000
3593 12983 5813 1 109.50000 418.400000
3593 12983 5814 1 109.50000 418.400000
5812 12983 5813 1 109.50000 418.400000
5812 12983 5814 1 109.50000 418.400000
5813 12983 5814 1 109.50000 418.400000
4670 12984 5815 1 109.50000 418.400000
4670 12984 5816 1 109.50000 418.400000
4670 12984 5817 1 109.50000 418.400000
5815 12984 5816 1 109.50000 418.400000
5815 12984 5817 1 109.50000 418.400000
5816 12984 5817 1 109.50000 418.400000
1852 12985 3074 1 109.50000 418.400000
1852 12985 5818 1 109.50000 418.400000
1852 12985 5819 1 109.50000 418.400000
3074 12985 5818 1 109.50000 418.400000
3074 12985 5819 1 109.50000 418.400000
5818 12985 5819 1 109.50000 418.400000
535 12986 4291 1 109.50000 418.400000
535 12986 5599 1 109.50000 418.400000
535 12986 5821 1 109.50000 418.400000
4291 12986 5599 1 109.50000 418.400000
4291 12986 5821 1 109.50000 418.400000
5599 12986 5821 1 109.50000 418.400000
2793 12987 3802 1 109.50000 418.400000
2793 12987 5822 1 109.50000 418.400000
2793 12987 5823 1 109.50000 418.400000
3802 12987 5822 1 109.50000 418.400000
3802 12987 5823 1 109.50000 418.400000
5822 12987 5823 1 109.50000 418.400000
5825 12988 5826 1 109.50000 418.400000
5825 12988 5827 1 109.50000 418.400000
5825 12988 9839 1 109.50000 418.400000
5826 12988 5827 1 109.50000 418.400000
5826 12988 9839 1 109.50000 418.400000
5827 12988 9839 1 109.50000 418.400000
1910 12989 2840 1 109.50000 418.400000
1910 12989 5777 1 109.50000 418.400000
1910 12989 5831 1 109.50000 418.400000
2840 12989 5777 1 109.50000 418.400000
2840 12989 5831 1 109.50000 418.400000
5777 12989 5831 1 109.50000 418.400000
5835 12990 5836 1 109.50000 418.400000
5835 12990 6820 1 109.50000 418.400000
5835 12990 9421 1 109.50000 418.400000
5836 12990 6820 1 109.50000 418.400000
5836 12990 9421 1 109.50000 418.400000
6820 12990 9421 1 109.50000 418.400000
4368 12991 5706 1 109.50000 418.400000
4368 12991 5708 1 109.50000 418.400000
4368 12991 5843 1 109.50000 418.400000
5706 12991 5708 1 109.50000 418.400000
5706 12991 5843 1 109.50000 418.400000
5708 12991 5843 1 109.50000 418.400000
4107 12992 4108 1 109.50000 418.400000
4107 12992 5845 1 109.50000 418.400000
4107 12992 5846 1 109.50000 418.400000
4108 12992 5845 1 109.50000 418.400000
4108 12992 5846 1 109.50000 418.400000
5845 12992 5846 1 109.50000 418.400000
5637 12993 5847 1 109.50000 418.400000
5637 12993 5848 1 109.50000 418.400000
5637 12993 5849 1 109.50000 418.400000
5847 12993 5848 1 109.50000 418.400000
5847 12993 5849 1 109.50000 418.400000
5848 12993 5849 1 109.50000 418.400000
410 12994 5850 1 109.50000 418.400000
410 12994 5851 1 109.50000 418.400000
410 12994 5852 1 109.50000 418.400000
5850 12994 5851 1 109.50000 418.400000
5850 12994 5852 1 109.50000 418.400000
5851 12994 5852 1 109.50000 418.400000
2611 12995 3586 1 109.50000 418.400000
2611 12995 5346 1 109.50000 418.400000
2611 12995 5853 1 109.50000 418.400000
3586 12995 5346 1 109.50000 418.400000
3586 12995 5853 1 109.50000 418.400000
5346 12995 5853 1 109.50000 418.400000
5854 12996 5855 1 109.50000 418.400000
5854 12996 5856 1 109.50000 418.400000
5854 12996 5857 1 109.50000 418.400000
5855 12996 5856 1 109.50000 418.400000
5855 12996 5857 1 109.50000 418.400000
5856 12996 5857 1 109.50000 418.400000
3444 12997 5062 1 109.50000 418.400000
3444 12997 5858 1 109.50000 418.400000
3444 12997 5859 1 109.50000 418.400000
5062 12997 5858 1 109.50000 418.400000
5062 12997 5859 1 109.50000 418.400000
5858 12997 5859 1 109.50000 418.400000
4834 12998 5862 1 109.50000 418.400000
4834 12998 5864 1 109.50000 418.400000
4834 12998 10290 1 109.50000 418.400000
5862 12998 5864 1 109.50000 418.400000
5862 12998 10290 1 109.50000 418.400000
5864 12998 10290 1 109.50000 418.400000
5865 12999 5866 1 109.50000 418.400000
5865 12999 5867 1 109.50000 418.400000
5865 12999 8664 1 109.50000 418.400000
5866 12999 5867 1 109.50000 418.400000
5866 12999 8664 1 109.50000 418.400000
5867 12999 8664 1 109.50000 418.400000
3851 13000 5283 1 109.50000 418.400000
3851 13000 5868 1 109.50000 418.400000
3851 13000 5869 1 109.50000 418.400000
5283 13000 5868 1 109.50000 418.400000
5283 13000 5869 1 109.50000 418.400000
5868 13000 5869 1 109.50000 418.400000
3005 13001 5870 1 109.50000 418.400000
3005 13001 5871 1 109.50000 418.400000
3005 13001 5872 1 109.50000 418.400000
5870 13001 5871 1 109.50000 418.400000
5870 13001 5872 1 109.50000 418.400000
5871 13001 5872 1 109.50000 418.400000
468 13002 5873 1 109.50000 418.400000
468 13002 5874 1 109.50000 418.400000
468 13002 5875 1 109.50000 418.400000
5873 13002 5874 1 109.50000 418.400000
5873 13002 5875 1 109.50000 418.400000
5874 13002 5875 1 109.50000 418.400000
5876 13003 5877 1 109.50000 418.400000
5876 13003 5878 1 109.50000 418.400000
5876 13003 5879 1 109.50000 418.400000
5877 13003 5878 1 109.50000 418.400000
5877 13003 5879 1 109.50000 418.400000
5878 13003 5879 1 109.50000 418.400000
5880 13004 5881 1 109.50000 418.400000
5880 13004 5882 1 109.50000 418.400000
5880 13004 5883 1 109.50000 418.400000
5881 13004 5882 1 109.50000 418.400000
5881 13004 5883 1 109.50000 418.400000
5882 13004 5883 1 109.50000 418.400000
3153 13005 5884 1 109.50000 418.400000
3153 13005 5885 1 109.50000 418.400000
3153 13005 5886 1 109.50000 418.400000
5884 13005 5885 1 109.50000 418.400000
5884 13005 5886 1 109.50000 418.400000
5885 13005 5886 1 109.50000 418.400000
1761 13006 5217 1 109.50000 418.400000
1761 13006 5887 1 109.50000 418.400000
1761 13006 5888 1 109.50000 418.400000
5217 13006 5887 1 109.50000 418.400000
5217 13006 5888 1 109.50000 418.400000
5887 13006 5888 1 109.50000 418.400000
4806 13007 5889 1 109.50000 418.400000
4806 13007 5890 1 109.50000 418.400000
4806 13007 5891 1 109.50000 418.400000
5889 13007 5890 1 109.50000 418.400000
5889 13007 5891 1 109.50000 418.400000
5890 13007 5891 1 109.50000 418.400000
1884 13008 5895 1 109.50000 418.400000
1884 13008 5896 1 109.50000 418.400000
1884 13008 5897 1 109.50000 418.400000
5895 13008 5896 1 109.50000 418.400000
5895 13008 5897 1 109.50000 418.400000
5896 13008 5897 1 109.50000 418.400000
1581 13009 5898 1 109.50000 418.400000
1581 13009 5899 1 109.50000 418.400000
1581 13009 5900 1 109.50000 418.400000
5898 13009 5899 1 109.50000 418.400000
5898 13009 5900 1 109.50000 418.400000
5899 13009 5900 1 109.50000 418.400000
3051 13010 5901 1 109.50000 418.400000
3051 13010 5902 1 109.50000 418.400000
3051 13010 5903 1 109.50000 418.400000
5901 13010 5902 1 109.50000 418.400000
5901 13010 5903 1 109.50000 418.400000
5902 13010 5903 1 109.50000 418.400000
5904 13011 5905 1 109.50000 418.400000
5904 13011 5906 1 109.50000 418.400000
5904 13011 5907 1 109.50000 418.400000
5905 13011 5906 1 109.50000 418.400000
5905 13011 5907 1 109.50000 418.400000
5906 13011 5907 1 109.50000 418.400000
3216 13012 5908 1 109.50000 418.400000
3216 13012 5909 1 109.50000 418.400000
3216 13012 5910 1 109.50000 418.400000
5908 13012 5909 1 109.50000 418.400000
5908 13012 5910 1 109.50000 418.400000
5909 13012 5910 1 109.50000 418.400000
3233 13013 5911 1 109.50000 418.400000
3233 13013 5912 1 109.50000 418.400000
3233 13013 5913 1 109.50000 418.400000
5911 13013 5912 1 109.50000 418.400000
5911 13013 5913 1 109.50000 418.400000
5912 13013 5913 1 109.50000 418.400000
1705 13014 5914 1 109.50000 418.400000
1705 13014 5915 1 109.50000 418.400000
1705 13014 5916 1 109.50000 418.400000
5914 13014 5915 1 109.50000 418.400000
5914 13014 5916 1 109.50000 418.400000
5915 13014 5916 1 109.50000 418.400000
1959 13015 3363 1 109.50000 418.400000
1959 13015 5917 1 109.50000 418.400000
1959 13015 5918 1 109.50000 418.400000
3363 13015 5917 1 109.50000 418.400000
3363 13015 5918 1 109.50000 418.400000
5917 13015 5918 1 109.50000 418.400000
2749 13016 5920 1 109.50000 418.400000
2749 13016 5921 1 109.50000 418.400000
2749 13016 5922 1 109.50000 418.400000
5920 13016 5921 1 109.50000 418.400000
5920 13016 5922 1 109.50000 418.400000
5921 13016 5922 1 109.50000 418.400000
762 13017 5923 1 109.50000 418.400000
762 13017 5924 1 109.50000 418.400000
762 13017 5925 1 109.50000 418.400000
5923 13017 5924 1 109.50000 418.400000
5923 13017 5925 1 109.50000 418.400000
5924 13017 5925 1 109.50000 418.400000
1862 13018 3414 1 109.50000 418.400000
1862 13018 3415 1 109.50000 418.400000
1862 13018 5926 1 109.50000 418.400000
3414 13018 3415 1 109.50000 418.400000
3414 13018 5926 1 109.50000 418.400000
3415 13018 5926 1 109.50000 418.400000
4457 13019 5469 1 109.50000 418.400000
4457 13019 5928 1 109.50000 418.400000
4457 13019 5929 1 109.50000 418.400000
5469 13019 5928 1 109.50000 418.400000
5469 13019 5929 1 109.50000 418.400000
5928 13019 5929 1 109.50000 418.400000
5930 13020 5931 1 109.50000 418.400000
5930 13020 5932 1 109.50000 418.400000
5930 13020 5933 1 109.50000 418.400000
5931 13020 5932 1 109.50000 418.400000
5931 13020 5933 1 109.50000 418.400000
5932 13020 5933 1 109.50000 418.400000
2263 13021 3255 1 109.50000 418.400000
2263 13021 5395 1 109.50000 418.400000
2263 13021 5934 1 109.50000 418.400000
3255 13021 5395 1 109.50000 418.400000
3255 13021 5934 1 109.50000 418.400000
5395 13021 5934 1 109.50000 418.400000
1189 13022 1192 1 109.50000 418.400000
1189 13022 5935 1 109.50000 418.400000
1189 13022 5936 1 109.50000 418.400000
1192 13022 5935 1 109.50000 418.400000
1192 13022 5936 1 109.50000 418.400000
5935 13022 5936 1 109.50000 418.400000
4312 13023 4492 1 109.50000 418.400000
4312 13023 5937 1 109.50000 418.400000
4312 13023 5938 1 109.50000 418.400000
4492 13023 5937 1 109.50000 418.400000
4492 13023 5938 1 109.50000 418.400000
5937 13023 5938 1 109.50000 418.400000
5939 13024 5940 1 109.50000 418.400000
5939 13024 5941 1 109.50000 418.400000
5939 13024 5942 1 109.50000 418.400000
5940 13024 5941 1 109.50000 418.400000
5940 13024 5942 1 109.50000 418.400000
5941 13024 5942 1 109.50000 418.400000
5743 13025 5945 1 109.50000 418.400000
5743 13025 9887 1 109.50000 418.400000
5743 13025 9889 1 109.50000 418.400000
5945 13025 9887 1 109.50000 418.400000
5945 13025 9889 1 109.50000 418.400000
9887 13025 9889 1 109.50000 418.400000
2385 13026 5946 1 109.50000 418.400000
2385 13026 5947 1 109.50000 418.400000
2385 13026 5948 1 109.50000 418.400000
5946 13026 5947 1 109.50000 418.400000
5946 13026 5948 1 109.50000 418.400000
5947 13026 5948 1 109.50000 418.400000
5949 13027 5950 1 109.50000 418.400000
5949 13027 5951 1 109.50000 418.400000
5949 13027 5952 1 109.50000 418.400000
5950 13027 5951 1 109.50000 418.400000
5950 13027 5952 1 109.50000 418.400000
5951 13027 5952 1 109.50000 418.400000
5953 13028 5954 1 109.50000 418.400000
5953 13028 5955 1 109.50000 418.400000
5953 13028 5956 1 109.50000 418.400000
5954 13028 5955 1 109.50000 418.400000
5954 13028 5956 1 109.50000 418.400000
5955 13028 5956 1 109.50000 418.400000
5957 13029 5958 1 109.50000 418.400000
5957 13029 5959 1 109.50000 418.400000
5957 13029 5960 1 109.50000 418.400000
5958 13029 5959 1 109.50000 418.400000
5958 13029 5960 1 109.50000 418.400000
5959 13029 5960 1 109.50000 418.400000
800 13030 4888 1 109.50000 418.400000
800 13030 5961 1 109.50000 418.400000
800 13030 5962 1 109.50000 418.400000
4888 13030 5961 1 109.50000 418.400000
4888 13030 5962 1 109.50000 418.400000
5961 13030 5962 1 109.50000 418.400000
1820 13031 1955 1 109.50000 418.400000
1820 13031 5966 1 109.50000 418.400000
1820 13031 5967 1 109.50000 418.400000
1955 13031 5966 1 109.50000 418.400000
1955 13031 5967 1 109.50000 418.400000
5966 13031 5967 1 109.50000 418.400000
1881 13032 2586 1 109.50000 418.400000
1881 13032 5968 1 109.50000 418.400000
1881 13032 5969 1 109.50000 418.400000
2586 13032 5968 1 109.50000 418.400000
2586 13032 5969 1 109.50000 418.400000
5968 13032 5969 1 109.50000 418.400000
5018 13033 5970 1 109.50000 418.400000
5018 13033 5971 1 109.50000 418.400000
5018 13033 5972 1 109.50000 418.400000
5970 13033 5971 1 109.50000 418.400000
5970 13033 5972 1 109.50000 418.400000
5971 13033 5972 1 109.50000 418.400000
1624 13034 5976 1 109.50000 418.400000
1624 13034 5977 1 109.50000 418.400000
1624 13034 7670 1 109.50000 418.400000
5976 13034 5977 1 109.50000 418.400000
5976 13034 7670 1 109.50000 418.400000
5977 13034 7670 1 109.50000 418.400000
2012 13035 3940 1 109.50000 418.400000
2012 13035 5982 1 109.50000 418.400000
2012 13035 5983 1 109.50000 418.400000
3940 13035 5982 1 109.50000 418.400000
3940 13035 5983 1 109.50000 418.400000
5982 13035 5983 1 109.50000 418.400000
5814 13036 5984 1 109.50000 418.400000
5814 13036 5985 1 109.50000 418.400000
5814 13036 5986 1 109.50000 418.400000
5984 13036 5985 1 109.50000 418.400000
5984 13036 5986 1 109.50000 418.400000
5985 13036 5986 1 109.50000 418.400000
3747 13037 4947 1 109.50000 418.400000
3747 13037 5987 1 109.50000 418.400000
3747 13037 5988 1 109.50000 418.400000
4947 13037 5987 1 109.50000 418.400000
4947 13037 5988 1 109.50000 418.400000
5987 13037 5988 1 109.50000 418.400000
3872 13038 4464 1 109.50000 418.400000
3872 13038 5989 1 109.50000 418.400000
3872 13038 5990 1 109.50000 418.400000
4464 13038 5989 1 109.50000 418.400000
4464 13038 5990 1 109.50000 418.400000
5989 13038 5990 1 109.50000 418.400000
5993 13039 5994 1 109.50000 418.400000
5993 13039 5995 1 109.50000 418.400000
5993 13039 5996 1 109.50000 418.400000
5994 13039 5995 1 109.50000 418.400000
5994 13039 5996 1 109.50000 418.400000
5995 13039 5996 1 109.50000 418.400000
555 13040 1228 1 109.50000 418.400000
555 13040 4653 1 109.50000 418.400000
555 13040 5999 1 109.50000 418.400000
1228 13040 4653 1 109.50000 418.400000
1228 13040 5999 1 109.50000 418.400000
4653 13040 5999 1 109.50000 418.400000
2207 13041 6002 1 109.50000 418.400000
2207 13041 6003 1 109.50000 418.400000
2207 13041 6004 1 109.50000 418.400000
6002 13041 6003 1 109.50000 418.400000
6002 13041 6004 1 109.50000 418.400000
6003 13041 6004 1 109.50000 418.400000
6007 13042 6008 1 109.50000 418.400000
6007 13042 6009 1 109.50000 418.400000
6007 13042 6010 1 109.50000 418.400000
6008 13042 6009 1 109.50000 418.400000
6008 13042 6010 1 109.50000 418.400000
6009 13042 6010 1 109.50000 418.400000
406 13043 2903 1 109.50000 418.400000
406 13043 6011 1 109.50000 418.400000
406 13043 6012 1 109.50000 418.400000
2903 13043 6011 1 109.50000 418.400000
2903 13043 6012 1 109.50000 418.400000
6011 13043 6012 1 109.50000 418.400000
222 13044 6013 1 109.50000 418.400000
222 13044 6014 1 109.50000 418.400000
222 13044 6015 1 109.50000 418.400000
6013 13044 6014 1 109.50000 418.400000
6013 13044 6015 1 109.50000 418.400000
6014 13044 6015 1 109.50000 418.400000
6016 13045 6017 1 109.50000 418.400000
6016 13045 6018 1 109.50000 418.400000
6016 13045 6019 1 109.50000 418.400000
6017 13045 6018 1 109.50000 418.400000
6017 13045 6019 1 109.50000 418.400000
6018 13045 6019 1 109.50000 418.400000
1160 13046 1162 1 109.50000 418.400000
1160 13046 1163 1 109.50000 418.400000
1160 13046 5112 1 109.50000 418.400000
1162 13046 1163 1 109.50000 418.400000
1162 13046 5112 1 109.50000 418.400000
1163 13046 5112 1 109.50000 418.400000
6022 13047 6023 1 109.50000 418.400000
6022 13047 6024 1 109.50000 418.400000
6022 13047 6025 1 109.50000 418.400000
6023 13047 6024 1 109.50000 418.400000
6023 13047 6025 1 109.50000 418.400000
6024 13047 6025 1 109.50000 418.400000
4590 13048 6028 1 109.50000 418.400000
4590 13048 6029 1 109.50000 418.400000
4590 13048 6030 1 109.50000 418.400000
6028 13048 6029 1 109.50000 418.400000
6028 13048 6030 1 109.50000 418.400000
6029 13048 6030 1 109.50000 418.400000
1584 13049 4663 1 109.50000 418.400000
1584 13049 6033 1 109.50000 418.400000
1584 13049 6034 1 109.50000 418.400000
4663 13049 6033 1 109.50000 418.400000
4663 13049 6034 1 109.50000 418.400000
6033 13049 6034 1 109.50000 418.400000
761 13050 6035 1 109.50000 418.400000
761 13050 6036 1 109.50000 418.400000
761 13050 6037 1 109.50000 418.400000
6035 13050 6036 1 109.50000 418.400000
6035 13050 6037 1 109.50000 418.400000
6036 13050 6037 1 109.50000 418.400000
6039 13051 6040 1 109.50000 418.400000
6039 13051 6041 1 109.50000 418.400000
6039 13051 6042 1 109.50000 418.400000
6040 13051 6041 1 109.50000 418.400000
6040 13051 6042 1 109.50000 418.400000
6041 13051 6042 1 109.50000 418.400000
6043 13052 6044 1 109.50000 418.400000
6043 13052 6045 1 109.50000 418.400000
6043 13052 6046 1 109.50000 418.400000
6044 13052 6045 1 109.50000 418.400000
6044 13052 6046 1 109.50000 418.400000
6045 13052 6046 1 109.50000 418.400000
2394 13053 6047 1 109.50000 418.400000
2394 13053 6048 1 109.50000 418.400000
2394 13053 6049 1 109.50000 418.400000
6047 13053 6048 1 109.50000 418.400000
6047 13053 6049 1 109.50000 418.400000
6048 13053 6049 1 109.50000 418.400000
2145 13054 4687 1 109.50000 418.400000
2145 13054 4715 1 109.50000 418.400000
2145 13054 6050 1 109.50000 418.400000
4687 13054 4715 1 109.50000 418.400000
4687 13054 6050 1 109.50000 418.400000
4715 13054 6050 1 109.50000 418.400000
287 13055 6052 1 109.50000 418.400000
287 13055 6053 1 109.50000 418.400000
287 13055 6054 1 109.50000 418.400000
6052 13055 6053 1 109.50000 418.400000
6052 13055 6054 1 109.50000 418.400000
6053 13055 6054 1 109.50000 418.400000
6055 13056 6056 1 109.50000 418.400000
6055 13056 6057 1 109.50000 418.400000
6055 13056 10055 1 109.50000 418.400000
6056 13056 6057 1 109.50000 418.400000
6056 13056 10055 1 109.50000 418.400000
6057 13056 10055 1 109.50000 418.400000
1088 13057 6058 1 109.50000 418.400000
1088 13057 6059 1 109.50000 418.400000
1088 13057 6060 1 109.50000 418.400000
6058 13057 6059 1 109.50000 418.400000
6058 13057 6060 1 109.50000 418.400000
6059 13057 6060 1 109.50000 418.400000
2979 13058 3790 1 109.50000 418.400000
2979 13058 4466 1 109.50000 418.400000
2979 13058 6061 1 109.50000 418.400000
3790 13058 4466 1 109.50000 418.400000
3790 13058 6061 1 109.50000 418.400000
4466 13058 6061 1 109.50000 418.400000
2141 13059 6062 1 109.50000 418.400000
2141 13059 6063 1 109.50000 418.400000
2141 13059 6064 1 109.50000 418.400000
6062 13059 6063 1 109.50000 418.400000
6062 13059 6064 1 109.50000 418.400000
6063 13059 6064 1 109.50000 418.400000
4627 13060 6065 1 109.50000 418.400000
4627 13060 6066 1 109.50000 418.400000
4627 13060 6067 1 109.50000 418.400000
6065 13060 6066 1 109.50000 418.400000
6065 13060 6067 1 109.50000 418.400000
6066 13060 6067 1 109.50000 418.400000
213 13061 214 1 109.50000 418.400000
213 13061 6068 1 109.50000 418.400000
213 13061 6069 1 109.50000 418.400000
214 13061 6068 1 109.50000 418.400000
214 13061 6069 1 109.50000 418.400000
6068 13061 6069 1 109.50000 418.400000
6070 13062 6071 1 109.50000 418.400000
6070 13062 6072 1 109.50000 418.400000
6070 13062 6073 1 109.50000 418.400000
6071 13062 6072 1 109.50000 418.400000
6071 13062 6073 1 109.50000 418.400000
6072 13062 6073 1 109.50000 418.400000
2000 13063 2631 1 109.50000 418.400000
2000 13063 6074 1 109.50000 418.400000
2000 13063 6075 1 109.50000 418.400000
2631 13063 6074 1 109.50000 418.400000
2631 13063 6075 1 109.50000 418.400000
6074 13063 6075 1 109.50000 418.400000
284 13064 6076 1 109.50000 418.400000
284 13064 6077 1 109.50000 418.400000
284 13064 6078 1 109.50000 418.400000
6076 13064 6077 1 109.50000 418.400000
6076 13064 6078 1 109.50000 418.400000
6077 13064 6078 1 109.50000 418.400000
5595 13065 6081 1 109.50000 418.400000
5595 13065 6082 1 109.50000 418.400000
5595 13065 6083 1 109.50000 418.400000
6081 13065 6082 1 109.50000 418.400000
6081 13065 6083 1 109.50000 418.400000
6082 13065 6083 1 109.50000 418.400000
6084 13066 6085 1 109.50000 418.400000
6084 13066 6086 1 109.50000 418.400000
6084 13066 6087 1 109.50000 418.400000
6085 13066 6086 1 109.50000 418.400000
6085 13066 6087 1 109.50000 418.400000
6086 13066 6087 1 109.50000 418.400000
6090 13067 6091 1 109.50000 418.400000
6090 13067 6092 1 109.50000 418.400000
6090 13067 6093 1 109.50000 418.400000
6091 13067 6092 1 109.50000 418.400000
6091 13067 6093 1 109.50000 418.400000
6092 13067 6093 1 109.50000 418.400000
1100 13068 6094 1 109.50000 418.400000
1100 13068 6095 1 109.50000 418.400000
1100 13068 6096 1 109.50000 418.400000
6094 13068 6095 1 109.50000 418.400000
6094 13068 6096 1 109.50000 418.400000
6095 13068 6096 1 109.50000 418.400000
2090 13069 3389 1 109.50000 418.400000
2090 13069 6097 1 109.50000 418.400000
2090 13069 6098 1 109.50000 418.400000
3389 13069 6097 1 109.50000 418.400000
3389 13069 6098 1 109.50000 418.400000
6097 13069 6098 1 109.50000 418.400000
4941 13070 6004 1 109.50000 418.400000
4941 13070 6102 1 109.50000 418.400000
4941 13070 6103 1 109.50000 418.400000
6004 13070 6102 1 109.50000 418.400000
6004 13070 6103 1 109.50000 418.400000
6102 13070 6103 1 109.50000 418.400000
6104 13071 6105 1 109.50000 418.400000
6104 13071 6106 1 109.50000 418.400000
6104 13071 6107 1 109.50000 418.400000
6105 13071 6106 1 109.50000 418.400000
6105 13071 6107 1 109.50000 418.400000
6106 13071 6107 1 109.50000 418.400000
4845 13072 6111 1 109.50000 418.400000
4845 13072 6113 1 109.50000 418.400000
4845 13072 10052 1 109.50000 418.400000
6111 13072 6113 1 109.50000 418.400000
6111 13072 10052 1 109.50000 418.400000
6113 13072 10052 1 109.50000 418.400000
2212 13073 3708 1 109.50000 418.400000
2212 13073 3709 1 109.50000 418.400000
2212 13073 6115 1 109.50000 418.400000
3708 13073 3709 1 109.50000 418.400000
3708 13073 6115 1 109.50000 418.400000
3709 13073 6115 1 109.50000 418.400000
4349 13074 6116 1 109.50000 418.400000
4349 13074 6117 1 109.50000 418.400000
4349 13074 11159 1 109.50000 418.400000
6116 13074 6117 1 109.50000 418.400000
6116 13074 11159 1 109.50000 418.400000
6117 13074 11159 1 109.50000 418.400000
2809 13075 4094 1 109.50000 418.400000
2809 13075 4253 1 109.50000 418.400000
2809 13075 6118 1 109.50000 418.400000
4094 13075 4253 1 109.50000 418.400000
4094 13075 6118 1 109.50000 418.400000
4253 13075 6118 1 109.50000 418.400000
307 13076 6119 1 109.50000 418.400000
307 13076 6120 1 109.50000 418.400000
307 13076 6121 1 109.50000 418.400000
6119 13076 6120 1 109.50000 418.400000
6119 13076 6121 1 109.50000 418.400000
6120 13076 6121 1 109.50000 418.400000
4795 13077 6122 1 109.50000 418.400000
4795 13077 6123 1 109.50000 418.400000
4795 13077 11169 1 109.50000 418.400000
6122 13077 6123 1 109.50000 418.400000
6122 13077 11169 1 109.50000 418.400000
6123 13077 11169 1 109.50000 418.400000
6124 13078 6125 1 109.50000 418.400000
6124 13078 6126 1 109.50000 418.400000
6124 13078 6127 1 109.50000 418.400000
6125 13078 6126 1 109.50000 418.400000
6125 13078 6127 1 109.50000 418.400000
6126 13078 6127 1 109.50000 418.400000
2358 13079 3142 1 109.50000 418.400000
2358 13079 3265 1 109.50000 418.400000
2358 13079 6128 1 109.50000 418.400000
3142 13079 3265 1 109.50000 418.400000
3142 13079 6128 1 109.50000 418.400000
3265 13079 6128 1 109.50000 418.400000
1038 13080 6129 1 109.50000 418.400000
1038 13080 6130 1 109.50000 418.400000
1038 13080 6131 1 109.50000 418.400000
6129 13080 6130 1 109.50000 418.400000
6129 13080 6131 1 109.50000 418.400000
6130 13080 6131 1 109.50000 418.400000
6132 13081 6133 1 109.50000 418.400000
6132 13081 6134 1 109.50000 418.400000
6132 13081 7283 1 109.50000 418.400000
6133 13081 6134 1 109.50000 418.400000
6133 13081 7283 1 109.50000 418.400000
6134 13081 7283 1 109.50000 418.400000
2147 13082 3328 1 109.50000 418.400000
2147 13082 6132 1 109.50000 418.400000
2147 13082 6136 1 109.50000 418.400000
3328 13082 6132 1 109.50000 418.400000
3328 13082 6136 1 109.50000 418.400000
6132 13082 6136 1 109.50000 418.400000
6137 13083 6138 1 109.50000 418.400000
6137 13083 6139 1 109.50000 418.400000
6137 13083 6140 1 109.50000 418.400000
6138 13083 6139 1 109.50000 418.400000
6138 13083 6140 1 109.50000 418.400000
6139 13083 6140 1 109.50000 418.400000
5532 13084 6141 1 109.50000 418.400000
5532 13084 6142 1 109.50000 418.400000
5532 13084 6143 1 109.50000 418.400000
6141 13084 6142 1 109.50000 418.400000
6141 13084 6143 1 109.50000 418.400000
6142 13084 6143 1 109.50000 418.400000
2049 13085 2248 1 109.50000 418.400000
2049 13085 2896 1 109.50000 418.400000
2049 13085 6144 1 109.50000 418.400000
2248 13085 2896 1 109.50000 418.400000
2248 13085 6144 1 109.50000 418.400000
2896 13085 6144 1 109.50000 418.400000
3996 13086 4443 1 109.50000 418.400000
3996 13086 6146 1 109.50000 418.400000
3996 13086 6321 1 109.50000 418.400000
4443 13086 6146 1 109.50000 418.400000
4443 13086 6321 1 109.50000 418.400000
6146 13086 6321 1 109.50000 418.400000
6150 13087 6151 1 109.50000 418.400000
6150 13087 6152 1 109.50000 418.400000
6150 13087 6153 1 109.50000 418.400000
6151 13087 6152 1 109.50000 418.400000
6151 13087 6153 1 109.50000 418.400000
6152 13087 6153 1 109.50000 418.400000
3973 13088 4286 1 109.50000 418.400000
3973 13088 5665 1 109.50000 418.400000
3973 13088 6154 1 109.50000 418.400000
4286 13088 5665 1 109.50000 418.400000
4286 13088 6154 1 109.50000 418.400000
5665 13088 6154 1 109.50000 418.400000
1093 13089 6155 1 109.50000 418.400000
1093 13089 6156 1 109.50000 418.400000
1093 13089 6157 1 109.50000 418.400000
6155 13089 6156 1 109.50000 418.400000
6155 13089 6157 1 109.50000 418.400000
6156 13089 6157 1 109.50000 418.400000
2983 13090 3693 1 109.50000 418.400000
2983 13090 6158 1 109.50000 418.400000
2983 13090 6159 1 109.50000 418.400000
3693 13090 6158 1 109.50000 418.400000
3693 13090 6159 1 109.50000 418.400000
6158 13090 6159 1 109.50000 418.400000
4746 13091 4801 1 109.50000 418.400000
4746 13091 4802 1 109.50000 418.400000
4746 13091 6160 1 109.50000 418.400000
4801 13091 4802 1 109.50000 418.400000
4801 13091 6160 1 109.50000 418.400000
4802 13091 6160 1 109.50000 418.400000
5464 13092 5466 1 109.50000 418.400000
5464 13092 6165 1 109.50000 418.400000
5464 13092 6166 1 109.50000 418.400000
5466 13092 6165 1 109.50000 418.400000
5466 13092 6166 1 109.50000 418.400000
6165 13092 6166 1 109.50000 418.400000
6168 13093 6169 1 109.50000 418.400000
6168 13093 6170 1 109.50000 418.400000
6168 13093 8848 1 109.50000 418.400000
6169 13093 6170 1 109.50000 418.400000
6169 13093 8848 1 109.50000 418.400000
6170 13093 8848 1 109.50000 418.400000
4293 13094 5672 1 109.50000 418.400000
4293 13094 6171 1 109.50000 418.400000
4293 13094 6172 1 109.50000 418.400000
5672 13094 6171 1 109.50000 418.400000
5672 13094 6172 1 109.50000 418.400000
6171 13094 6172 1 109.50000 418.400000
592 13095 4685 1 109.50000 418.400000
592 13095 6176 1 109.50000 418.400000
592 13095 6177 1 109.50000 418.400000
4685 13095 6176 1 109.50000 418.400000
4685 13095 6177 1 109.50000 418.400000
6176 13095 6177 1 109.50000 418.400000
437 13096 3324 1 109.50000 418.400000
437 13096 6179 1 109.50000 418.400000
437 13096 6180 1 109.50000 418.400000
3324 13096 6179 1 109.50000 418.400000
3324 13096 6180 1 109.50000 418.400000
6179 13096 6180 1 109.50000 418.400000
6181 13097 6182 1 109.50000 418.400000
6181 13097 6183 1 109.50000 418.400000
6181 13097 6184 1 109.50000 418.400000
6182 13097 6183 1 109.50000 418.400000
6182 13097 6184 1 109.50000 418.400000
6183 13097 6184 1 109.50000 418.400000
4111 13098 6185 1 109.50000 418.400000
4111 13098 6186 1 109.50000 418.400000
4111 13098 6187 1 109.50000 418.400000
6185 13098 6186 1 109.50000 418.400000
6185 13098 6187 1 109.50000 418.400000
6186 13098 6187 1 109.50000 418.400000
6188 13099 6189 1 109.50000 418.400000
6188 13099 6190 1 109.50000 418.400000
6188 13099 6191 1 109.50000 418.400000
6189 13099 6190 1 109.50000 418.400000
6189 13099 6191 1 109.50000 418.400000
6190 13099 6191 1 109.50000 418.400000
6193 13100 6194 1 109.50000 418.400000
6193 13100 6195 1 109.50000 418.400000
6193 13100 6196 1 109.50000 418.400000
6194 13100 6195 1 109.50000 418.400000
6194 13100 6196 1 109.50000 418.400000
6195 13100 6196 1 109.50000 418.400000
1718 13101 6200 1 109.50000 418.400000
1718 13101 6201 1 109.50000 418.400000
1718 13101 6202 1 109.50000 418.400000
6200 13101 6201 1 109.50000 418.400000
6200 13101 6202 1 109.50000 418.400000
6201 13101 6202 1 109.50000 418.400000
4499 13102 5159 1 109.50000 418.400000
4499 13102 6203 1 109.50000 418.400000
4499 13102 6204 1 109.50000 418.400000
5159 13102 6203 1 109.50000 418.400000
5159 13102 6204 1 109.50000 418.400000
6203 13102 6204 1 109.50000 418.400000
2712 13103 6205 1 109.50000 418.400000
2712 13103 6206 1 109.50000 418.400000
2712 13103 6207 1 109.50000 418.400000
6205 13103 6206 1 109.50000 418.400000
6205 13103 6207 1 109.50000 418.400000
6206 13103 6207 1 109.50000 418.400000
1101 13104 3236 1 109.50000 418.400000
1101 13104 6208 1 109.50000 418.400000
1101 13104 6209 1 109.50000 418.400000
3236 13104 6208 1 109.50000 418.400000
3236 13104 6209 1 109.50000 418.400000
6208 13104 6209 1 109.50000 418.400000
6210 13105 6211 1 109.50000 418.400000
6210 13105 6212 1 109.50000 418.400000
6210 13105 6213 1 109.50000 418.400000
6211 13105 6212 1 109.50000 418.400000
6211 13105 6213 1 109.50000 418.400000
6212 13105 6213 1 109.50000 418.400000
939 13106 4632 1 109.50000 418.400000
939 13106 6120 1 109.50000 418.400000
939 13106 6214 1 109.50000 418.400000
4632 13106 6120 1 109.50000 418.400000
4632 13106 6214 1 109.50000 418.400000
6120 13106 6214 1 109.50000 418.400000
3672 13107 6215 1 109.50000 418.400000
3672 13107 6216 1 109.50000 418.400000
3672 13107 6217 1 109.50000 418.400000
6215 13107 6216 1 109.50000 418.400000
6215 13107 6217 1 109.50000 418.400000
6216 13107 6217 1 109.50000 418.400000
473 13108 3491 1 109.50000 418.400000
473 13108 6218 1 109.50000 418.400000
473 13108 6219 1 109.50000 418.400000
3491 13108 6218 1 109.50000 418.400000
3491 13108 6219 1 109.50000 418.400000
6218 13108 6219 1 109.50000 418.400000
392 13109 5556 1 109.50000 418.400000
392 13109 6136 1 109.50000 418.400000
392 13109 6220 1 109.50000 418.400000
5556 13109 6136 1 109.50000 418.400000
5556 13109 6220 1 109.50000 418.400000
6136 13109 6220 1 109.50000 418.400000
2054 13110 2758 1 109.50000 418.400000
2054 13110 6221 1 109.50000 418.400000
2054 13110 6222 1 109.50000 418.400000
2758 13110 6221 1 109.50000 418.400000
2758 13110 6222 1 109.50000 418.400000
6221 13110 6222 1 109.50000 418.400000
449 13111 6223 1 109.50000 418.400000
449 13111 6224 1 109.50000 418.400000
449 13111 6225 1 109.50000 418.400000
6223 13111 6224 1 109.50000 418.400000
6223 13111 6225 1 109.50000 418.400000
6224 13111 6225 1 109.50000 418.400000
1091 13112 6226 1 109.50000 418.400000
1091 13112 6227 1 109.50000 418.400000
1091 13112 6228 1 109.50000 418.400000
6226 13112 6227 1 109.50000 418.400000
6226 13112 6228 1 109.50000 418.400000
6227 13112 6228 1 109.50000 418.400000
1121 13113 4211 1 109.50000 418.400000
1121 13113 6013 1 109.50000 418.400000
1121 13113 6235 1 109.50000 418.400000
4211 13113 6013 1 109.50000 418.400000
4211 13113 6235 1 109.50000 418.400000
6013 13113 6235 1 109.50000 418.400000
1232 13114 6236 1 109.50000 418.400000
1232 13114 6237 1 109.50000 418.400000
1232 13114 6238 1 109.50000 418.400000
6236 13114 6237 1 109.50000 418.400000
6236 13114 6238 1 109.50000 418.400000
6237 13114 6238 1 109.50000 418.400000
6239 13115 6240 1 109.50000 418.400000
6239 13115 6241 1 109.50000 418.400000
6239 13115 6242 1 109.50000 418.400000
6240 13115 6241 1 109.50000 418.400000
6240 13115 6242 1 109.50000 418.400000
6241 13115 6242 1 109.50000 418.400000
1891 13116 4578 1 109.50000 418.400000
1891 13116 6243 1 109.50000 418.400000
1891 13116 6244 1 109.50000 418.400000
4578 13116 6243 1 109.50000 418.400000
4578 13116 6244 1 109.50000 418.400000
6243 13116 6244 1 109.50000 418.400000
2307 13117 3952 1 109.50000 418.400000
2307 13117 6245 1 109.50000 418.400000
2307 13117 11040 1 109.50000 418.400000
3952 13117 6245 1 109.50000 418.400000
3952 13117 11040 1 109.50000 418.400000
6245 13117 11040 1 109.50000 418.400000
413 13118 2897 1 109.50000 418.400000
413 13118 6246 1 109.50000 418.400000
413 13118 6247 1 109.50000 418.400000
2897 13118 6246 1 109.50000 418.400000
2897 13118 6247 1 109.50000 418.400000
6246 13118 6247 1 109.50000 418.400000
850 13119 6248 1 109.50000 418.400000
850 13119 6249 1 109.50000 418.400000
850 13119 6250 1 109.50000 418.400000
6248 13119 6249 1 109.50000 418.400000
6248 13119 6250 1 109.50000 418.400000
6249 13119 6250 1 109.50000 418.400000
3587 13120 3588 1 109.50000 418.400000
3587 13120 4775 1 109.50000 418.400000
3587 13120 6251 1 109.50000 418.400000
3588 13120 4775 1 109.50000 418.400000
3588 13120 6251 1 109.50000 418.400000
4775 13120 6251 1 109.50000 418.400000
878 13121 6252 1 109.50000 418.400000
878 13121 6253 1 109.50000 418.400000
878 13121 6254 1 109.50000 418.400000
6252 13121 6253 1 109.50000 418.400000
6252 13121 6254 1 109.50000 418.400000
6253 13121 6254 1 109.50000 418.400000
6255 13122 6257 1 109.50000 418.400000
6255 13122 6258 1 109.50000 418.400000
6255 13122 8022 1 109.50000 418.400000
6257 13122 6258 1 109.50000 418.400000
6257 13122 8022 1 109.50000 418.400000
6258 13122 8022 1 109.50000 418.400000
4441 13123 6259 1 109.50000 418.400000
4441 13123 6260 1 109.50000 418.400000
4441 13123 6261 1 109.50000 418.400000
6259 13123 6260 1 109.50000 418.400000
6259 13123 6261 1 109.50000 418.400000
6260 13123 6261 1 109.50000 418.400000
2327 13124 2964 1 109.50000 418.400000
2327 13124 6265 1 109.50000 418.400000
2327 13124 11223 1 109.50000 418.400000
2964 13124 6265 1 109.50000 418.400000
2964 13124 11223 1 109.50000 418.400000
6265 13124 11223 1 109.50000 418.400000
371 13125 372 1 109.50000 418.400000
371 13125 373 1 109.50000 418.400000
371 13125 6180 1 109.50000 418.400000
372 13125 373 1 109.50000 418.400000
372 13125 6180 1 109.50000 418.400000
373 13125 6180 1 109.50000 418.400000
6268 13126 6269 1 109.50000 418.400000
6268 13126 6270 1 109.50000 418.400000
6268 13126 6271 1 109.50000 418.400000
6269 13126 6270 1 109.50000 418.400000
6269 13126 6271 1 109.50000 418.400000
6270 13126 6271 1 109.50000 418.400000
6272 13127 6273 1 109.50000 418.400000
6272 13127 6274 1 109.50000 418.400000
6272 13127 6645 1 109.50000 418.400000
6273 13127 6274 1 109.50000 418.400000
6273 13127 6645 1 109.50000 418.400000
6274 13127 6645 1 109.50000 418.400000
4554 13128 6276 1 109.50000 418.400000
4554 13128 6277 1 109.50000 418.400000
4554 13128 11286 1 109.50000 418.400000
6276 13128 6277 1 109.50000 418.400000
6276 13128 11286 1 109.50000 418.400000
6277 13128 11286 1 109.50000 418.400000
6278 13129 6279 1 109.50000 418.400000
6278 13129 6280 1 109.50000 418.400000
6278 13129 6281 1 109.50000 418.400000
6279 13129 6280 1 109.50000 418.400000
6279 13129 6281 1 109.50000 418.400000
6280 13129 6281 1 109.50000 418.400000
1475 13130 2616 1 109.50000 418.400000
1475 13130 3373 1 109.50000 418.400000
1475 13130 6282 1 109.50000 418.400000
2616 13130 3373 1 109.50000 418.400000
2616 13130 6282 1 109.50000 418.400000
3373 13130 6282 1 109.50000 418.400000
5812 13131 6283 1 109.50000 418.400000
5812 13131 6284 1 109.50000 418.400000
5812 13131 6285 1 109.50000 418.400000
6283 13131 6284 1 109.50000 418.400000
6283 13131 6285 1 109.50000 418.400000
6284 13131 6285 1 109.50000 418.400000
1277 13132 3654 1 109.50000 418.400000
1277 13132 6286 1 109.50000 418.400000
1277 13132 6287 1 109.50000 418.400000
3654 13132 6286 1 109.50000 418.400000
3654 13132 6287 1 109.50000 418.400000
6286 13132 6287 1 109.50000 418.400000
1916 13133 5293 1 109.50000 418.400000
1916 13133 6288 1 109.50000 418.400000
1916 13133 6289 1 109.50000 418.400000
5293 13133 6288 1 109.50000 418.400000
5293 13133 6289 1 109.50000 418.400000
6288 13133 6289 1 109.50000 418.400000
1275 13134 3964 1 109.50000 418.400000
1275 13134 6290 1 109.50000 418.400000
1275 13134 6291 1 109.50000 418.400000
3964 13134 6290 1 109.50000 418.400000
3964 13134 6291 1 109.50000 418.400000
6290 13134 6291 1 109.50000 418.400000
5873 13135 6292 1 109.50000 418.400000
5873 13135 6293 1 109.50000 418.400000
5873 13135 6294 1 109.50000 418.400000
6292 13135 6293 1 109.50000 418.400000
6292 13135 6294 1 109.50000 418.400000
6293 13135 6294 1 109.50000 418.400000
3286 13136 6008 1 109.50000 418.400000
3286 13136 6295 1 109.50000 418.400000
3286 13136 6296 1 109.50000 418.400000
6008 13136 6295 1 109.50000 418.400000
6008 13136 6296 1 109.50000 418.400000
6295 13136 6296 1 109.50000 418.400000
6297 13137 6298 1 109.50000 418.400000
6297 13137 6299 1 109.50000 418.400000
6297 13137 6300 1 109.50000 418.400000
6298 13137 6299 1 109.50000 418.400000
6298 13137 6300 1 109.50000 418.400000
6299 13137 6300 1 109.50000 418.400000
1757 13138 6301 1 109.50000 418.400000
1757 13138 6302 1 109.50000 418.400000
1757 13138 6303 1 109.50000 418.400000
6301 13138 6302 1 109.50000 418.400000
6301 13138 6303 1 109.50000 418.400000
6302 13138 6303 1 109.50000 418.400000
4131 13139 4973 1 109.50000 418.400000
4131 13139 6304 1 109.50000 418.400000
4131 13139 6305 1 109.50000 418.400000
4973 13139 6304 1 109.50000 418.400000
4973 13139 6305 1 109.50000 418.400000
6304 13139 6305 1 109.50000 418.400000
3368 13140 6306 1 109.50000 418.400000
3368 13140 6307 1 109.50000 418.400000
3368 13140 6308 1 109.50000 418.400000
6306 13140 6307 1 109.50000 418.400000
6306 13140 6308 1 109.50000 418.400000
6307 13140 6308 1 109.50000 418.400000
5218 13141 6309 1 109.50000 418.400000
5218 13141 6310 1 109.50000 418.400000
5218 13141 11148 1 109.50000 418.400000
6309 13141 6310 1 109.50000 418.400000
6309 13141 11148 1 109.50000 418.400000
6310 13141 11148 1 109.50000 418.400000
1996 13142 6311 1 109.50000 418.400000
1996 13142 6312 1 109.50000 418.400000
1996 13142 6313 1 109.50000 418.400000
6311 13142 6312 1 109.50000 418.400000
6311 13142 6313 1 109.50000 418.400000
6312 13142 6313 1 109.50000 418.400000
4047 13143 6316 1 109.50000 418.400000
4047 13143 6317 1 109.50000 418.400000
4047 13143 6318 1 109.50000 418.400000
6316 13143 6317 1 109.50000 418.400000
6316 13143 6318 1 109.50000 418.400000
6317 13143 6318 1 109.50000 418.400000
6319 13144 6320 1 109.50000 418.400000
6319 13144 6321 1 109.50000 418.400000
6319 13144 6322 1 109.50000 418.400000
6320 13144 6321 1 109.50000 418.400000
6320 13144 6322 1 109.50000 418.400000
6321 13144 6322 1 109.50000 418.400000
5166 13145 5675 1 109.50000 418.400000
5166 13145 6323 1 109.50000 418.400000
5166 13145 6324 1 109.50000 418.400000
5675 13145 6323 1 109.50000 418.400000
5675 13145 6324 1 109.50000 418.400000
6323 13145 6324 1 109.50000 418.400000
2126 13146 6325 1 109.50000 418.400000
2126 13146 6326 1 109.50000 418.400000
2126 13146 6327 1 109.50000 418.400000
6325 13146 6326 1 109.50000 418.400000
6325 13146 6327 1 109.50000 418.400000
6326 13146 6327 1 109.50000 418.400000
2735 13147 6328 1 109.50000 418.400000
2735 13147 6329 1 109.50000 418.400000
2735 13147 6330 1 109.50000 418.400000
6328 13147 6329 1 109.50000 418.400000
6328 13147 6330 1 109.50000 418.400000
6329 13147 6330 1 109.50000 418.400000
6331 13148 6332 1 109.50000 418.400000
6331 13148 6333 1 109.50000 418.400000
6331 13148 6334 1 109.50000 418.400000
6332 13148 6333 1 109.50000 418.400000
6332 13148 6334 1 109.50000 418.400000
6333 13148 6334 1 109.50000 418.400000
87 13149 5533 1 109.50000 418.400000
87 13149 6336 1 109.50000 418.400000
87 13149 9085 1 109.50000 418.400000
5533 13149 6336 1 109.50000 418.400000
5533 13149 9085 1 109.50000 418.400000
6336 13149 9085 1 109.50000 418.400000
3369 13150 5534 1 109.50000 418.400000
3369 13150 6338 1 109.50000 418.400000
3369 13150 6339 1 109.50000 418.400000
5534 13150 6338 1 109.50000 418.400000
5534 13150 6339 1 109.50000 418.400000
6338 13150 6339 1 109.50000 418.400000
4223 13151 6340 1 109.50000 418.400000
4223 13151 6341 1 109.50000 418.400000
4223 13151 6342 1 109.50000 418.400000
6340 13151 6341 1 109.50000 418.400000
6340 13151 6342 1 109.50000 418.400000
6341 13151 6342 1 109.50000 418.400000
1950 13152 2017 1 109.50000 418.400000
1950 13152 6343 1 109.50000 418.400000
1950 13152 6345 1 109.50000 418.400000
2017 13152 6343 1 109.50000 418.400000
2017 13152 6345 1 109.50000 418.400000
6343 13152 6345 1 109.50000 418.400000
6346 13153 6347 1 109.50000 418.400000
6346 13153 6348 1 109.50000 418.400000
6346 13153 6349 1 109.50000 418.400000
6347 13153 6348 1 109.50000 418.400000
6347 13153 6349 1 109.50000 418.400000
6348 13153 6349 1 109.50000 418.400000
2052 13154 2719 1 109.50000 418.400000
2052 13154 6352 1 109.50000 418.400000
2052 13154 6353 1 109.50000 418.400000
2719 13154 6352 1 109.50000 418.400000
2719 13154 6353 1 109.50000 418.400000
6352 13154 6353 1 109.50000 418.400000
5113 13155 5115 1 109.50000 418.400000
5113 13155 6354 1 109.50000 418.400000
5113 13155 6355 1 109.50000 418.400000
5115 13155 6354 1 109.50000 418.400000
5115 13155 6355 1 109.50000 418.400000
6354 13155 6355 1 109.50000 418.400000
423 13156 3117 1 109.50000 418.400000
423 13156 4717 1 109.50000 418.400000
423 13156 6357 1 109.50000 418.400000
3117 13156 4717 1 109.50000 418.400000
3117 13156 6357 1 109.50000 418.400000
4717 13156 6357 1 109.50000 418.400000
3090 13157 5951 1 109.50000 418.400000
3090 13157 6358 1 109.50000 418.400000
3090 13157 6359 1 109.50000 418.400000
5951 13157 6358 1 109.50000 418.400000
5951 13157 6359 1 109.50000 418.400000
6358 13157 6359 1 109.50000 418.400000
6360 13158 6362 1 109.50000 418.400000
6360 13158 6363 1 109.50000 418.400000
6360 13158 7308 1 109.50000 418.400000
6362 13158 6363 1 109.50000 418.400000
6362 13158 7308 1 109.50000 418.400000
6363 13158 7308 1 109.50000 418.400000
6364 13159 6365 1 109.50000 418.400000
6364 13159 6366 1 109.50000 418.400000
6364 13159 6367 1 109.50000 418.400000
6365 13159 6366 1 109.50000 418.400000
6365 13159 6367 1 109.50000 418.400000
6366 13159 6367 1 109.50000 418.400000
3994 13160 6368 1 109.50000 418.400000
3994 13160 6369 1 109.50000 418.400000
3994 13160 6370 1 109.50000 418.400000
6368 13160 6369 1 109.50000 418.400000
6368 13160 6370 1 109.50000 418.400000
6369 13160 6370 1 109.50000 418.400000
2967 13161 6371 1 109.50000 418.400000
2967 13161 6372 1 109.50000 418.400000
2967 13161 6373 1 109.50000 418.400000
6371 13161 6372 1 109.50000 418.400000
6371 13161 6373 1 109.50000 418.400000
6372 13161 6373 1 109.50000 418.400000
5340 13162 6313 1 109.50000 418.400000
5340 13162 6374 1 109.50000 418.400000
5340 13162 6375 1 109.50000 418.400000
6313 13162 6374 1 109.50000 418.400000
6313 13162 6375 1 109.50000 418.400000
6374 13162 6375 1 109.50000 418.400000
515 13163 5700 1 109.50000 418.400000
515 13163 6376 1 109.50000 418.400000
515 13163 6377 1 109.50000 418.400000
5700 13163 6376 1 109.50000 418.400000
5700 13163 6377 1 109.50000 418.400000
6376 13163 6377 1 109.50000 418.400000
6378 13164 6379 1 109.50000 418.400000
6378 13164 6380 1 109.50000 418.400000
6378 13164 11247 1 109.50000 418.400000
6379 13164 6380 1 109.50000 418.400000
6379 13164 11247 1 109.50000 418.400000
6380 13164 11247 1 109.50000 418.400000
818 13165 2222 1 109.50000 418.400000
818 13165 5510 1 109.50000 418.400000
818 13165 6381 1 109.50000 418.400000
2222 13165 5510 1 109.50000 418.400000
2222 13165 6381 1 109.50000 418.400000
5510 13165 6381 1 109.50000 418.400000
6387 13166 6388 1 109.50000 418.400000
6387 13166 6389 1 109.50000 418.400000
6387 13166 6390 1 109.50000 418.400000
6388 13166 6389 1 109.50000 418.400000
6388 13166 6390 1 109.50000 418.400000
6389 13166 6390 1 109.50000 418.400000
6391 13167 6392 1 109.50000 418.400000
6391 13167 6393 1 109.50000 418.400000
6391 13167 6394 1 109.50000 418.400000
6392 13167 6393 1 109.50000 418.400000
6392 13167 6394 1 109.50000 418.400000
6393 13167 6394 1 109.50000 418.400000
5661 13168 6398 1 109.50000 418.400000
5661 13168 6399 1 109.50000 418.400000
5661 13168 6778 1 109.50000 418.400000
6398 13168 6399 1 109.50000 418.400000
6398 13168 6778 1 109.50000 418.400000
6399 13168 6778 1 109.50000 418.400000
6402 13169 6403 1 109.50000 418.400000
6402 13169 10022 1 109.50000 418.400000
6402 13169 10024 1 109.50000 418.400000
6403 13169 10022 1 109.50000 418.400000
6403 13169 10024 1 109.50000 418.400000
10022 13169 10024 1 109.50000 418.400000
6404 13170 6405 1 109.50000 418.400000
6404 13170 6406 1 109.50000 418.400000
6404 13170 11281 1 109.50000 418.400000
6405 13170 6406 1 109.50000 418.400000
6405 13170 11281 1 109.50000 418.400000
6406 13170 11281 1 109.50000 418.400000
3944 13171 5219 1 109.50000 418.400000
3944 13171 6407 1 109.50000 418.400000
3944 13171 6408 1 109.50000 418.400000
5219 13171 6407 1 109.50000 418.400000
5219 13171 6408 1 109.50000 418.400000
6407 13171 6408 1 109.50000 418.400000
2615 13172 4908 1 109.50000 418.400000
2615 13172 6392 1 109.50000 418.400000
2615 13172 6409 1 109.50000 418.400000
4908 13172 6392 1 109.50000 418.400000
4908 13172 6409 1 109.50000 418.400000
6392 13172 6409 1 109.50000 418.400000
1025 13173 4844 1 109.50000 418.400000
1025 13173 6410 1 109.50000 418.400000
1025 13173 6411 1 109.50000 418.400000
4844 13173 6410 1 109.50000 418.400000
4844 13173 6411 1 109.50000 418.400000
6410 13173 6411 1 109.50000 418.400000
1420 13174 1734 1 109.50000 418.400000
1420 13174 6414 1 109.50000 418.400000
1420 13174 7233 1 109.50000 418.400000
1734 13174 6414 1 109.50000 418.400000
1734 13174 7233 1 109.50000 418.400000
6414 13174 7233 1 109.50000 418.400000
686 13175 4435 1 109.50000 418.400000
686 13175 4862 1 109.50000 418.400000
686 13175 6415 1 109.50000 418.400000
4435 13175 4862 1 109.50000 418.400000
4435 13175 6415 1 109.50000 418.400000
4862 13175 6415 1 109.50000 418.400000
5027 13176 6416 1 109.50000 418.400000
5027 13176 6418 1 109.50000 418.400000
5027 13176 7865 1 109.50000 418.400000
6416 13176 6418 1 109.50000 418.400000
6416 13176 7865 1 109.50000 418.400000
6418 13176 7865 1 109.50000 418.400000
3813 13177 4730 1 109.50000 418.400000
3813 13177 6419 1 109.50000 418.400000
3813 13177 6420 1 109.50000 418.400000
4730 13177 6419 1 109.50000 418.400000
4730 13177 6420 1 109.50000 418.400000
6419 13177 6420 1 109.50000 418.400000
808 13178 3227 1 109.50000 418.400000
808 13178 6421 1 109.50000 418.400000
808 13178 6422 1 109.50000 418.400000
3227 13178 6421 1 109.50000 418.400000
3227 13178 6422 1 109.50000 418.400000
6421 13178 6422 1 109.50000 418.400000
3302 13179 4511 1 109.50000 418.400000
3302 13179 6423 1 109.50000 418.400000
3302 13179 11205 1 109.50000 418.400000
4511 13179 6423 1 109.50000 418.400000
4511 13179 11205 1 109.50000 418.400000
6423 13179 11205 1 109.50000 418.400000
6424 13180 6425 1 109.50000 418.400000
6424 13180 6426 1 109.50000 418.400000
6424 13180 6427 1 109.50000 418.400000
6425 13180 6426 1 109.50000 418.400000
6425 13180 6427 1 109.50000 418.400000
6426 13180 6427 1 109.50000 418.400000
4430 13181 4902 1 109.50000 418.400000
4430 13181 6428 1 109.50000 418.400000
4430 13181 6429 1 109.50000 418.400000
4902 13181 6428 1 109.50000 418.400000
4902 13181 6429 1 109.50000 418.400000
6428 13181 6429 1 109.50000 418.400000
163 13182 5067 1 109.50000 418.400000
163 13182 6430 1 109.50000 418.400000
163 13182 6431 1 109.50000 418.400000
5067 13182 6430 1 109.50000 418.400000
5067 13182 6431 1 109.50000 418.400000
6430 13182 6431 1 109.50000 418.400000
3239 13183 5007 1 109.50000 418.400000
3239 13183 6432 1 109.50000 418.400000
3239 13183 6433 1 109.50000 418.400000
5007 13183 6432 1 109.50000 418.400000
5007 13183 6433 1 109.50000 418.400000
6432 13183 6433 1 109.50000 418.400000
6406 13184 6434 1 109.50000 418.400000
6406 13184 6435 1 109.50000 418.400000
6406 13184 6436 1 109.50000 418.400000
6434 13184 6435 1 109.50000 418.400000
6434 13184 6436 1 109.50000 418.400000
6435 13184 6436 1 109.50000 418.400000
134 13185 5025 1 109.50000 418.400000
134 13185 6438 1 109.50000 418.400000
134 13185 6439 1 109.50000 418.400000
5025 13185 6438 1 109.50000 418.400000
5025 13185 6439 1 109.50000 418.400000
6438 13185 6439 1 109.50000 418.400000
5104 13186 6440 1 109.50000 418.400000
5104 13186 6441 1 109.50000 418.400000
5104 13186 6442 1 109.50000 418.400000
6440 13186 6441 1 109.50000 418.400000
6440 13186 6442 1 109.50000 418.400000
6441 13186 6442 1 109.50000 418.400000
6443 13187 6444 1 109.50000 418.400000
6443 13187 6445 1 109.50000 418.400000
6443 13187 6446 1 109.50000 418.400000
6444 13187 6445 1 109.50000 418.400000
6444 13187 6446 1 109.50000 418.400000
6445 13187 6446 1 109.50000 418.400000
1261 13188 6447 1 109.50000 418.400000
1261 13188 6448 1 109.50000 418.400000
1261 13188 6449 1 109.50000 418.400000
6447 13188 6448 1 109.50000 418.400000
6447 13188 6449 1 109.50000 418.400000
6448 13188 6449 1 109.50000 418.400000
5992 13189 6450 1 109.50000 418.400000
5992 13189 6451 1 109.50000 418.400000
5992 13189 6452 1 109.50000 418.400000
6450 13189 6451 1 109.50000 418.400000
6450 13189 6452 1 109.50000 418.400000
6451 13189 6452 1 109.50000 418.400000
3290 13190 6453 1 109.50000 418.400000
3290 13190 6454 1 109.50000 418.400000
3290 13190 6455 1 109.50000 418.400000
6453 13190 6454 1 109.50000 418.400000
6453 13190 6455 1 109.50000 418.400000
6454 13190 6455 1 109.50000 418.400000
6456 13191 6457 1 109.50000 418.400000
6456 13191 6458 1 109.50000 418.400000
6456 13191 6459 1 109.50000 418.400000
6457 13191 6458 1 109.50000 418.400000
6457 13191 6459 1 109.50000 418.400000
6458 13191 6459 1 109.50000 418.400000
6460 13192 6461 1 109.50000 418.400000
6460 13192 6462 1 109.50000 418.400000
6460 13192 6463 1 109.50000 418.400000
6461 13192 6462 1 109.50000 418.400000
6461 13192 6463 1 109.50000 418.400000
6462 13192 6463 1 109.50000 418.400000
5519 13193 6464 1 109.50000 418.400000
5519 13193 6465 1 109.50000 418.400000
5519 13193 6466 1 109.50000 418.400000
6464 13193 6465 1 109.50000 418.400000
6464 13193 6466 1 109.50000 418.400000
6465 13193 6466 1 109.50000 418.400000
1020 13194 2731 1 109.50000 418.400000
1020 13194 6467 1 109.50000 418.400000
1020 13194 11325 1 109.50000 418.400000
2731 13194 6467 1 109.50000 418.400000
2731 13194 11325 1 109.50000 418.400000
6467 13194 11325 1 109.50000 418.400000
1421 13195 4026 1 109.50000 418.400000
1421 13195 4027 1 109.50000 418.400000
1421 13195 6469 1 109.50000 418.400000
4026 13195 4027 1 109.50000 418.400000
4026 13195 6469 1 109.50000 418.400000
4027 13195 6469 1 109.50000 418.400000
1000 13196 4411 1 109.50000 418.400000
1000 13196 6471 1 109.50000 418.400000
1000 13196 6472 1 109.50000 418.400000
4411 13196 6471 1 109.50000 418.400000
4411 13196 6472 1 109.50000 418.400000
6471 13196 6472 1 109.50000 418.400000
2892 13197 6473 1 109.50000 418.400000
2892 13197 6474 1 109.50000 418.400000
2892 13197 6475 1 109.50000 418.400000
6473 13197 6474 1 109.50000 418.400000
6473 13197 6475 1 109.50000 418.400000
6474 13197 6475 1 109.50000 418.400000
1235 13198 6476 1 109.50000 418.400000
1235 13198 6477 1 109.50000 418.400000
1235 13198 6478 1 109.50000 418.400000
6476 13198 6477 1 109.50000 418.400000
6476 13198 6478 1 109.50000 418.400000
6477 13198 6478 1 109.50000 418.400000
1605 13199 3649 1 109.50000 418.400000
1605 13199 3799 1 109.50000 418.400000
1605 13199 6479 1 109.50000 418.400000
3649 13199 3799 1 109.50000 418.400000
3649 13199 6479 1 109.50000 418.400000
3799 13199 6479 1 109.50000 418.400000
4015 13200 6480 1 109.50000 418.400000
4015 13200 6481 1 109.50000 418.400000
4015 13200 6482 1 109.50000 418.400000
6480 13200 6481 1 109.50000 418.400000
6480 13200 6482 1 109.50000 418.400000
6481 13200 6482 1 109.50000 418.400000
3341 13201 6483 1 109.50000 418.400000
3341 13201 6484 1 109.50000 418.400000
3341 13201 6485 1 109.50000 418.400000
6483 13201 6484 1 109.50000 418.400000
6483 13201 6485 1 109.50000 418.400000
6484 13201 6485 1 109.50000 418.400000
569 13202 1655 1 109.50000 418.400000
569 13202 3453 1 109.50000 418.400000
569 13202 6489 1 109.50000 418.400000
1655 13202 3453 1 109.50000 418.400000
1655 13202 6489 1 109.50000 418.400000
3453 13202 6489 1 109.50000 418.400000
3298 13203 3300 1 109.50000 418.400000
3298 13203 6490 1 109.50000 418.400000
3298 13203 6491 1 109.50000 418.400000
3300 13203 6490 1 109.50000 418.400000
3300 13203 6491 1 109.50000 418.400000
6490 13203 6491 1 109.50000 418.400000
6493 13204 6494 1 109.50000 418.400000
6493 13204 6495 1 109.50000 418.400000
6493 13204 6496 1 109.50000 418.400000
6494 13204 6495 1 109.50000 418.400000
6494 13204 6496 1 109.50000 418.400000
6495 13204 6496 1 109.50000 418.400000
6497 13205 6498 1 109.50000 418.400000
6497 13205 6499 1 109.50000 418.400000
6497 13205 6500 1 109.50000 418.400000
6498 13205 6499 1 109.50000 418.400000
6498 13205 6500 1 109.50000 418.400000
6499 13205 6500 1 109.50000 418.400000
1716 13206 5704 1 109.50000 418.400000
1716 13206 6501 1 109.50000 418.400000
1716 13206 6502 1 109.50000 418.400000
5704 13206 6501 1 109.50000 418.400000
5704 13206 6502 1 109.50000 418.400000
6501 13206 6502 1 109.50000 418.400000
420 13207 4794 1 109.50000 418.400000
420 13207 6503 1 109.50000 418.400000
420 13207 6504 1 109.50000 418.400000
4794 13207 6503 1 109.50000 418.400000
4794 13207 6504 1 109.50000 418.400000
6503 13207 6504 1 109.50000 418.400000
216 13208 1144 1 109.50000 418.400000
216 13208 6505 1 109.50000 418.400000
216 13208 6506 1 109.50000 418.400000
1144 13208 6505 1 109.50000 418.400000
1144 13208 6506 1 109.50000 418.400000
6505 13208 6506 1 109.50000 418.400000
1097 13209 3532 1 109.50000 418.400000
1097 13209 5312 1 109.50000 418.400000
1097 13209 6507 1 109.50000 418.400000
3532 13209 5312 1 109.50000 418.400000
3532 13209 6507 1 109.50000 418.400000
5312 13209 6507 1 109.50000 418.400000
6508 13210 6509 1 109.50000 418.400000
6508 13210 6510 1 109.50000 418.400000
6508 13210 6511 1 109.50000 418.400000
6509 13210 6510 1 109.50000 418.400000
6509 13210 6511 1 109.50000 418.400000
6510 13210 6511 1 109.50000 418.400000
1872 13211 5784 1 109.50000 418.400000
1872 13211 6062 1 109.50000 418.400000
1872 13211 6512 1 109.50000 418.400000
5784 13211 6062 1 109.50000 418.400000
5784 13211 6512 1 109.50000 418.400000
6062 13211 6512 1 109.50000 418.400000
2266 13212 5983 1 109.50000 418.400000
2266 13212 6513 1 109.50000 418.400000
2266 13212 6514 1 109.50000 418.400000
5983 13212 6513 1 109.50000 418.400000
5983 13212 6514 1 109.50000 418.400000
6513 13212 6514 1 109.50000 418.400000
2686 13213 4741 1 109.50000 418.400000
2686 13213 6515 1 109.50000 418.400000
2686 13213 6516 1 109.50000 418.400000
4741 13213 6515 1 109.50000 418.400000
4741 13213 6516 1 109.50000 418.400000
6515 13213 6516 1 109.50000 418.400000
4103 13214 6517 1 109.50000 418.400000
4103 13214 6518 1 109.50000 418.400000
4103 13214 8916 1 109.50000 418.400000
6517 13214 6518 1 109.50000 418.400000
6517 13214 8916 1 109.50000 418.400000
6518 13214 8916 1 109.50000 418.400000
3729 13215 6520 1 109.50000 418.400000
3729 13215 6521 1 109.50000 418.400000
3729 13215 9788 1 109.50000 418.400000
6520 13215 6521 1 109.50000 418.400000
6520 13215 9788 1 109.50000 418.400000
6521 13215 9788 1 109.50000 418.400000
1650 13216 6522 1 109.50000 418.400000
1650 13216 6523 1 109.50000 418.400000
1650 13216 6524 1 109.50000 418.400000
6522 13216 6523 1 109.50000 418.400000
6522 13216 6524 1 109.50000 418.400000
6523 13216 6524 1 109.50000 418.400000
4937 13217 6525 1 109.50000 418.400000
4937 13217 10238 1 109.50000 418.400000
4937 13217 11309 1 109.50000 418.400000
6525 13217 10238 1 109.50000 418.400000
6525 13217 11309 1 109.50000 418.400000
10238 13217 11309 1 109.50000 418.400000
1664 13218 6527 1 109.50000 418.400000
1664 13218 6528 1 109.50000 418.400000
1664 13218 6529 1 109.50000 418.400000
6527 13218 6528 1 109.50000 418.400000
6527 13218 6529 1 109.50000 418.400000
6528 13218 6529 1 109.50000 418.400000
505 13219 1594 1 109.50000 418.400000
505 13219 6530 1 109.50000 418.400000
505 13219 6531 1 109.50000 418.400000
1594 13219 6530 1 109.50000 418.400000
1594 13219 6531 1 109.50000 418.400000
6530 13219 6531 1 109.50000 418.400000
6532 13220 6533 1 109.50000 418.400000
6532 13220 6534 1 109.50000 418.400000
6532 13220 6535 1 109.50000 418.400000
6533 13220 6534 1 109.50000 418.400000
6533 13220 6535 1 109.50000 418.400000
6534 13220 6535 1 109.50000 418.400000
667 13221 2672 1 109.50000 418.400000
667 13221 6536 1 109.50000 418.400000
667 13221 6537 1 109.50000 418.400000
2672 13221 6536 1 109.50000 418.400000
2672 13221 6537 1 109.50000 418.400000
6536 13221 6537 1 109.50000 418.400000
600 13222 5830 1 109.50000 418.400000
600 13222 6538 1 109.50000 418.400000
600 13222 6539 1 109.50000 418.400000
5830 13222 6538 1 109.50000 418.400000
5830 13222 6539 1 109.50000 418.400000
6538 13222 6539 1 109.50000 418.400000
787 13223 2709 1 109.50000 418.400000
787 13223 3980 1 109.50000 418.400000
787 13223 5754 1 109.50000 418.400000
2709 13223 3980 1 109.50000 418.400000
2709 13223 5754 1 109.50000 418.400000
3980 13223 5754 1 109.50000 418.400000
6540 13224 6541 1 109.50000 418.400000
6540 13224 6542 1 109.50000 418.400000
6540 13224 6543 1 109.50000 418.400000
6541 13224 6542 1 109.50000 418.400000
6541 13224 6543 1 109.50000 418.400000
6542 13224 6543 1 109.50000 418.400000
6544 13225 6545 1 109.50000 418.400000
6544 13225 8277 1 109.50000 418.400000
6544 13225 8279 1 109.50000 418.400000
6545 13225 8277 1 109.50000 418.400000
6545 13225 8279 1 109.50000 418.400000
8277 13225 8279 1 109.50000 418.400000
490 13226 1063 1 109.50000 418.400000
490 13226 1064 1 109.50000 418.400000
490 13226 1065 1 109.50000 418.400000
1063 13226 1064 1 109.50000 418.400000
1063 13226 1065 1 109.50000 418.400000
1064 13226 1065 1 109.50000 418.400000
552 13227 6550 1 109.50000 418.400000
552 13227 6551 1 109.50000 418.400000
552 13227 6822 1 109.50000 418.400000
6550 13227 6551 1 109.50000 418.400000
6550 13227 6822 1 109.50000 418.400000
6551 13227 6822 1 109.50000 418.400000
5902 13228 5925 1 109.50000 418.400000
5902 13228 6553 1 109.50000 418.400000
5902 13228 6554 1 109.50000 418.400000
5925 13228 6553 1 109.50000 418.400000
5925 13228 6554 1 109.50000 418.400000
6553 13228 6554 1 109.50000 418.400000
870 13229 2515 1 109.50000 418.400000
870 13229 5948 1 109.50000 418.400000
870 13229 6555 1 109.50000 418.400000
2515 13229 5948 1 109.50000 418.400000
2515 13229 6555 1 109.50000 418.400000
5948 13229 6555 1 109.50000 418.400000
6559 13230 6560 1 109.50000 418.400000
6559 13230 6561 1 109.50000 418.400000
6559 13230 6562 1 109.50000 418.400000
6560 13230 6561 1 109.50000 418.400000
6560 13230 6562 1 109.50000 418.400000
6561 13230 6562 1 109.50000 418.400000
2444 13231 6563 1 109.50000 418.400000
2444 13231 6564 1 109.50000 418.400000
2444 13231 6565 1 109.50000 418.400000
6563 13231 6564 1 109.50000 418.400000
6563 13231 6565 1 109.50000 418.400000
6564 13231 6565 1 109.50000 418.400000
238 13232 3590 1 109.50000 418.400000
238 13232 6141 1 109.50000 418.400000
238 13232 6571 1 109.50000 418.400000
3590 13232 6141 1 109.50000 418.400000
3590 13232 6571 1 109.50000 418.400000
6141 13232 6571 1 109.50000 418.400000
4468 13233 6575 1 109.50000 418.400000
4468 13233 6576 1 109.50000 418.400000
4468 13233 6577 1 109.50000 418.400000
6575 13233 6576 1 109.50000 418.400000
6575 13233 6577 1 109.50000 418.400000
6576 13233 6577 1 109.50000 418.400000
1433 13234 6578 1 109.50000 418.400000
1433 13234 6579 1 109.50000 418.400000
1433 13234 6580 1 109.50000 418.400000
6578 13234 6579 1 109.50000 418.400000
6578 13234 6580 1 109.50000 418.400000
6579 13234 6580 1 109.50000 418.400000
6582 13235 6583 1 109.50000 418.400000
6582 13235 6584 1 109.50000 418.400000
6582 13235 6585 1 109.50000 418.400000
6583 13235 6584 1 109.50000 418.400000
6583 13235 6585 1 109.50000 418.400000
6584 13235 6585 1 109.50000 418.400000
2380 13236 3156 1 109.50000 418.400000
2380 13236 4547 1 109.50000 418.400000
2380 13236 6586 1 109.50000 418.400000
3156 13236 4547 1 109.50000 418.400000
3156 13236 6586 1 109.50000 418.400000
4547 13236 6586 1 109.50000 418.400000
6589 13237 6590 1 109.50000 418.400000
6589 13237 6591 1 109.50000 418.400000
6589 13237 6616 1 109.50000 418.400000
6590 13237 6591 1 109.50000 418.400000
6590 13237 6616 1 109.50000 418.400000
6591 13237 6616 1 109.50000 418.400000
2013 13238 2962 1 109.50000 418.400000
2013 13238 6592 1 109.50000 418.400000
2013 13238 6593 1 109.50000 418.400000
2962 13238 6592 1 109.50000 418.400000
2962 13238 6593 1 109.50000 418.400000
6592 13238 6593 1 109.50000 418.400000
418 13239 6594 1 109.50000 418.400000
418 13239 6595 1 109.50000 418.400000
418 13239 6596 1 109.50000 418.400000
6594 13239 6595 1 109.50000 418.400000
6594 13239 6596 1 109.50000 418.400000
6595 13239 6596 1 109.50000 418.400000
2345 13240 6597 1 109.50000 418.400000
2345 13240 6598 1 109.50000 418.400000
2345 13240 6599 1 109.50000 418.400000
6597 13240 6598 1 109.50000 418.400000
6597 13240 6599 1 109.50000 418.400000
6598 13240 6599 1 109.50000 418.400000
6602 13241 6603 1 109.50000 418.400000
6602 13241 6604 1 109.50000 418.400000
6602 13241 6605 1 109.50000 418.400000
6603 13241 6604 1 109.50000 418.400000
6603 13241 6605 1 109.50000 418.400000
6604 13241 6605 1 109.50000 418.400000
1392 13242 5733 1 109.50000 418.400000
1392 13242 6606 1 109.50000 418.400000
1392 13242 6607 1 109.50000 418.400000
5733 13242 6606 1 109.50000 418.400000
5733 13242 6607 1 109.50000 418.400000
6606 13242 6607 1 109.50000 418.400000
6608 13243 6609 1 109.50000 418.400000
6608 13243 6610 1 109.50000 418.400000
6608 13243 6611 1 109.50000 418.400000
6609 13243 6610 1 109.50000 418.400000
6609 13243 6611 1 109.50000 418.400000
6610 13243 6611 1 109.50000 418.400000
2696 13244 6612 1 109.50000 418.400000
2696 13244 6613 1 109.50000 418.400000
2696 13244 6614 1 109.50000 418.400000
6612 13244 6613 1 109.50000 418.400000
6612 13244 6614 1 109.50000 418.400000
6613 13244 6614 1 109.50000 418.400000
965 13245 6615 1 109.50000 418.400000
965 13245 6616 1 109.50000 418.400000
965 13245 6617 1 109.50000 418.400000
6615 13245 6616 1 109.50000 418.400000
6615 13245 6617 1 109.50000 418.400000
6616 13245 6617 1 109.50000 418.400000
3061 13246 4696 1 109.50000 418.400000
3061 13246 6618 1 109.50000 418.400000
3061 13246 6619 1 109.50000 418.400000
4696 13246 6618 1 109.50000 418.400000
4696 13246 6619 1 109.50000 418.400000
6618 13246 6619 1 109.50000 418.400000
2706 13247 6620 1 109.50000 418.400000
2706 13247 6621 1 109.50000 418.400000
2706 13247 7477 1 109.50000 418.400000
6620 13247 6621 1 109.50000 418.400000
6620 13247 7477 1 109.50000 418.400000
6621 13247 7477 1 109.50000 418.400000
3787 13248 5290 1 109.50000 418.400000
3787 13248 6623 1 109.50000 418.400000
3787 13248 6624 1 109.50000 418.400000
5290 13248 6623 1 109.50000 418.400000
5290 13248 6624 1 109.50000 418.400000
6623 13248 6624 1 109.50000 418.400000
6625 13249 6626 1 109.50000 418.400000
6625 13249 6627 1 109.50000 418.400000
6625 13249 6628 1 109.50000 418.400000
6626 13249 6627 1 109.50000 418.400000
6626 13249 6628 1 109.50000 418.400000
6627 13249 6628 1 109.50000 418.400000
6250 13250 6629 1 109.50000 418.400000
6250 13250 6630 1 109.50000 418.400000
6250 13250 9981 1 109.50000 418.400000
6629 13250 6630 1 109.50000 418.400000
6629 13250 9981 1 109.50000 418.400000
6630 13250 9981 1 109.50000 418.400000
4237 13251 5401 1 109.50000 418.400000
4237 13251 6631 1 109.50000 418.400000
4237 13251 6632 1 109.50000 418.400000
5401 13251 6631 1 109.50000 418.400000
5401 13251 6632 1 109.50000 418.400000
6631 13251 6632 1 109.50000 418.400000
2372 13252 2563 1 109.50000 418.400000
2372 13252 4729 1 109.50000 418.400000
2372 13252 5464 1 109.50000 418.400000
2563 13252 4729 1 109.50000 418.400000
2563 13252 5464 1 109.50000 418.400000
4729 13252 5464 1 109.50000 418.400000
4905 13253 6633 1 109.50000 418.400000
4905 13253 6634 1 109.50000 418.400000
4905 13253 6635 1 109.50000 418.400000
6633 13253 6634 1 109.50000 418.400000
6633 13253 6635 1 109.50000 418.400000
6634 13253 6635 1 109.50000 418.400000
6127 13254 6636 1 109.50000 418.400000
6127 13254 6637 1 109.50000 418.400000
6127 13254 6638 1 109.50000 418.400000
6636 13254 6637 1 109.50000 418.400000
6636 13254 6638 1 109.50000 418.400000
6637 13254 6638 1 109.50000 418.400000
1808 13255 6640 1 109.50000 418.400000
1808 13255 6641 1 109.50000 418.400000
1808 13255 6642 1 109.50000 418.400000
6640 13255 6641 1 109.50000 418.400000
6640 13255 6642 1 109.50000 418.400000
6641 13255 6642 1 109.50000 418.400000
5132 13256 6644 1 109.50000 418.400000
5132 13256 6645 1 109.50000 418.400000
5132 13256 6646 1 109.50000 418.400000
6644 13256 6645 1 109.50000 418.400000
6644 13256 6646 1 109.50000 418.400000
6645 13256 6646 1 109.50000 418.400000
6651 13257 6652 1 109.50000 418.400000
6651 13257 6653 1 109.50000 418.400000
6651 13257 6654 1 109.50000 418.400000
6652 13257 6653 1 109.50000 418.400000
6652 13257 6654 1 109.50000 418.400000
6653 13257 6654 1 109.50000 418.400000
4393 13258 6655 1 109.50000 418.400000
4393 13258 6656 1 109.50000 418.400000
4393 13258 6657 1 109.50000 418.400000
6655 13258 6656 1 109.50000 418.400000
6655 13258 6657 1 109.50000 418.400000
6656 13258 6657 1 109.50000 418.400000
4656 13259 6659 1 109.50000 418.400000
4656 13259 6660 1 109.50000 418.400000
4656 13259 6661 1 109.50000 418.400000
6659 13259 6660 1 109.50000 418.400000
6659 13259 6661 1 109.50000 418.400000
6660 13259 6661 1 109.50000 418.400000
185 13260 5640 1 109.50000 418.400000
185 13260 6662 1 109.50000 418.400000
185 13260 6663 1 109.50000 418.400000
5640 13260 6662 1 109.50000 418.400000
5640 13260 6663 1 109.50000 418.400000
6662 13260 6663 1 109.50000 418.400000
4861 13261 6535 1 109.50000 418.400000
4861 13261 6664 1 109.50000 418.400000
4861 13261 6665 1 109.50000 418.400000
6535 13261 6664 1 109.50000 418.400000
6535 13261 6665 1 109.50000 418.400000
6664 13261 6665 1 109.50000 418.400000
4206 13262 4239 1 109.50000 418.400000
4206 13262 6666 1 109.50000 418.400000
4206 13262 6667 1 109.50000 418.400000
4239 13262 6666 1 109.50000 418.400000
4239 13262 6667 1 109.50000 418.400000
6666 13262 6667 1 109.50000 418.400000
1800 13263 6668 1 109.50000 418.400000
1800 13263 6669 1 109.50000 418.400000
1800 13263 6670 1 109.50000 418.400000
6668 13263 6669 1 109.50000 418.400000
6668 13263 6670 1 109.50000 418.400000
6669 13263 6670 1 109.50000 418.400000
4703 13264 6457 1 109.50000 418.400000
4703 13264 6671 1 109.50000 418.400000
4703 13264 6672 1 109.50000 418.400000
6457 13264 6671 1 109.50000 418.400000
6457 13264 6672 1 109.50000 418.400000
6671 13264 6672 1 109.50000 418.400000
5397 13265 6673 1 109.50000 418.400000
5397 13265 6674 1 109.50000 418.400000
5397 13265 6675 1 109.50000 418.400000
6673 13265 6674 1 109.50000 418.400000
6673 13265 6675 1 109.50000 418.400000
6674 13265 6675 1 109.50000 418.400000
2787 13266 6676 1 109.50000 418.400000
2787 13266 6677 1 109.50000 418.400000
2787 13266 6678 1 109.50000 418.400000
6676 13266 6677 1 109.50000 418.400000
6676 13266 6678 1 109.50000 418.400000
6677 13266 6678 1 109.50000 418.400000
6679 13267 6680 1 109.50000 418.400000
6679 13267 6681 1 109.50000 418.400000
6679 13267 6682 1 109.50000 418.400000
6680 13267 6681 1 109.50000 418.400000
6680 13267 6682 1 109.50000 418.400000
6681 13267 6682 1 109.50000 418.400000
203 13268 4267 1 109.50000 418.400000
203 13268 4374 1 109.50000 418.400000
203 13268 6683 1 109.50000 418.400000
4267 13268 4374 1 109.50000 418.400000
4267 13268 6683 1 109.50000 418.400000
4374 13268 6683 1 109.50000 418.400000
2628 13269 4564 1 109.50000 418.400000
2628 13269 6133 1 109.50000 418.400000
2628 13269 6684 1 109.50000 418.400000
4564 13269 6133 1 109.50000 418.400000
4564 13269 6684 1 109.50000 418.400000
6133 13269 6684 1 109.50000 418.400000
915 13270 4839 1 109.50000 418.400000
915 13270 6685 1 109.50000 418.400000
915 13270 6686 1 109.50000 418.400000
4839 13270 6685 1 109.50000 418.400000
4839 13270 6686 1 109.50000 418.400000
6685 13270 6686 1 109.50000 418.400000
1603 13271 2059 1 109.50000 418.400000
1603 13271 5910 1 109.50000 418.400000
1603 13271 6687 1 109.50000 418.400000
2059 13271 5910 1 109.50000 418.400000
2059 13271 6687 1 109.50000 418.400000
5910 13271 6687 1 109.50000 418.400000
1109 13272 6688 1 109.50000 418.400000
1109 13272 6689 1 109.50000 418.400000
1109 13272 6690 1 109.50000 418.400000
6688 13272 6689 1 109.50000 418.400000
6688 13272 6690 1 109.50000 418.400000
6689 13272 6690 1 109.50000 418.400000
6691 13273 6692 1 109.50000 418.400000
6691 13273 6693 1 109.50000 418.400000
6691 13273 6694 1 109.50000 418.400000
6692 13273 6693 1 109.50000 418.400000
6692 13273 6694 1 109.50000 418.400000
6693 13273 6694 1 109.50000 418.400000
6695 13274 6696 1 109.50000 418.400000
6695 13274 6697 1 109.50000 418.400000
6695 13274 6698 1 109.50000 418.400000
6696 13274 6697 1 109.50000 418.400000
6696 13274 6698 1 109.50000 418.400000
6697 13274 6698 1 109.50000 418.400000
6699 13275 6700 1 109.50000 418.400000
6699 13275 6701 1 109.50000 418.400000
6699 13275 6702 1 109.50000 418.400000
6700 13275 6701 1 109.50000 418.400000
6700 13275 6702 1 109.50000 418.400000
6701 13275 6702 1 109.50000 418.400000
3616 13276 3665 1 109.50000 418.400000
3616 13276 4837 1 109.50000 418.400000
3616 13276 6703 1 109.50000 418.400000
3665 13276 4837 1 109.50000 418.400000
3665 13276 6703 1 109.50000 418.400000
4837 13276 6703 1 109.50000 418.400000
4583 13277 4584 1 109.50000 418.400000
4583 13277 6705 1 109.50000 418.400000
4583 13277 6706 1 109.50000 418.400000
4584 13277 6705 1 109.50000 418.400000
4584 13277 6706 1 109.50000 418.400000
6705 13277 6706 1 109.50000 418.400000
5319 13278 6216 1 109.50000 418.400000
5319 13278 6707 1 109.50000 418.400000
5319 13278 6708 1 109.50000 418.400000
6216 13278 6707 1 109.50000 418.400000
6216 13278 6708 1 109.50000 418.400000
6707 13278 6708 1 109.50000 418.400000
3935 13279 3936 1 109.50000 418.400000
3935 13279 6709 1 109.50000 418.400000
3935 13279 6710 1 109.50000 418.400000
3936 13279 6709 1 109.50000 418.400000
3936 13279 6710 1 109.50000 418.400000
6709 13279 6710 1 109.50000 418.400000
1733 13280 3990 1 109.50000 418.400000
1733 13280 5245 1 109.50000 418.400000
1733 13280 6711 1 109.50000 418.400000
3990 13280 5245 1 109.50000 418.400000
3990 13280 6711 1 109.50000 418.400000
5245 13280 6711 1 109.50000 418.400000
6712 13281 6713 1 109.50000 418.400000
6712 13281 6714 1 109.50000 418.400000
6712 13281 6715 1 109.50000 418.400000
6713 13281 6714 1 109.50000 418.400000
6713 13281 6715 1 109.50000 418.400000
6714 13281 6715 1 109.50000 418.400000
576 13282 1840 1 109.50000 418.400000
576 13282 2975 1 109.50000 418.400000
576 13282 6716 1 109.50000 418.400000
1840 13282 2975 1 109.50000 418.400000
1840 13282 6716 1 109.50000 418.400000
2975 13282 6716 1 109.50000 418.400000
6717 13283 6718 1 109.50000 418.400000
6717 13283 6719 1 109.50000 418.400000
6717 13283 6720 1 109.50000 418.400000
6718 13283 6719 1 109.50000 418.400000
6718 13283 6720 1 109.50000 418.400000
6719 13283 6720 1 109.50000 418.400000
6721 13284 6722 1 109.50000 418.400000
6721 13284 6723 1 109.50000 418.400000
6721 13284 11202 1 109.50000 418.400000
6722 13284 6723 1 109.50000 418.400000
6722 13284 11202 1 109.50000 418.400000
6723 13284 11202 1 109.50000 418.400000
3900 13285 5538 1 109.50000 418.400000
3900 13285 6593 1 109.50000 418.400000
3900 13285 6724 1 109.50000 418.400000
5538 13285 6593 1 109.50000 418.400000
5538 13285 6724 1 109.50000 418.400000
6593 13285 6724 1 109.50000 418.400000
1450 13286 6725 1 109.50000 418.400000
1450 13286 11255 1 109.50000 418.400000
1450 13286 11263 1 109.50000 418.400000
6725 13286 11255 1 109.50000 418.400000
6725 13286 11263 1 109.50000 418.400000
11255 13286 11263 1 109.50000 418.400000
2381 13287 3818 1 109.50000 418.400000
2381 13287 6727 1 109.50000 418.400000
2381 13287 6728 1 109.50000 418.400000
3818 13287 6727 1 109.50000 418.400000
3818 13287 6728 1 109.50000 418.400000
6727 13287 6728 1 109.50000 418.400000
2408 13288 6729 1 109.50000 418.400000
2408 13288 6730 1 109.50000 418.400000
2408 13288 6731 1 109.50000 418.400000
6729 13288 6730 1 109.50000 418.400000
6729 13288 6731 1 109.50000 418.400000
6730 13288 6731 1 109.50000 418.400000
2643 13289 4028 1 109.50000 418.400000
2643 13289 6732 1 109.50000 418.400000
2643 13289 6733 1 109.50000 418.400000
4028 13289 6732 1 109.50000 418.400000
4028 13289 6733 1 109.50000 418.400000
6732 13289 6733 1 109.50000 418.400000
3929 13290 5694 1 109.50000 418.400000
3929 13290 5695 1 109.50000 418.400000
3929 13290 6736 1 109.50000 418.400000
5694 13290 5695 1 109.50000 418.400000
5694 13290 6736 1 109.50000 418.400000
5695 13290 6736 1 109.50000 418.400000
659 13291 6738 1 109.50000 418.400000
659 13291 6739 1 109.50000 418.400000
659 13291 6740 1 109.50000 418.400000
6738 13291 6739 1 109.50000 418.400000
6738 13291 6740 1 109.50000 418.400000
6739 13291 6740 1 109.50000 418.400000
5734 13292 6743 1 109.50000 418.400000
5734 13292 6744 1 109.50000 418.400000
5734 13292 6745 1 109.50000 418.400000
6743 13292 6744 1 109.50000 418.400000
6743 13292 6745 1 109.50000 418.400000
6744 13292 6745 1 109.50000 418.400000
5794 13293 6522 1 109.50000 418.400000
5794 13293 6746 1 109.50000 418.400000
5794 13293 6747 1 109.50000 418.400000
6522 13293 6746 1 109.50000 418.400000
6522 13293 6747 1 109.50000 418.400000
6746 13293 6747 1 109.50000 418.400000
6748 13294 6749 1 109.50000 418.400000
6748 13294 6750 1 109.50000 418.400000
6748 13294 6751 1 109.50000 418.400000
6749 13294 6750 1 109.50000 418.400000
6749 13294 6751 1 109.50000 418.400000
6750 13294 6751 1 109.50000 418.400000
6752 13295 6753 1 109.50000 418.400000
6752 13295 6754 1 109.50000 418.400000
6752 13295 6755 1 109.50000 418.400000
6753 13295 6754 1 109.50000 418.400000
6753 13295 6755 1 109.50000 418.400000
6754 13295 6755 1 109.50000 418.400000
815 13296 6756 1 109.50000 418.400000
815 13296 6757 1 109.50000 418.400000
815 13296 11287 1 109.50000 418.400000
6756 13296 6757 1 109.50000 418.400000
6756 13296 11287 1 109.50000 418.400000
6757 13296 11287 1 109.50000 418.400000
5390 13297 5765 1 109.50000 418.400000
5390 13297 6758 1 109.50000 418.400000
5390 13297 10518 1 109.50000 418.400000
5765 13297 6758 1 109.50000 418.400000
5765 13297 10518 1 109.50000 418.400000
6758 13297 10518 1 109.50000 418.400000
4778 13298 6759 1 109.50000 418.400000
4778 13298 6760 1 109.50000 418.400000
4778 13298 6761 1 109.50000 418.400000
6759 13298 6760 1 109.50000 418.400000
6759 13298 6761 1 109.50000 418.400000
6760 13298 6761 1 109.50000 418.400000
4128 13299 6764 1 109.50000 418.400000
4128 13299 7358 1 109.50000 418.400000
4128 13299 7359 1 109.50000 418.400000
6764 13299 7358 1 109.50000 418.400000
6764 13299 7359 1 109.50000 418.400000
7358 13299 7359 1 109.50000 418.400000
5916 13300 6766 1 109.50000 418.400000
5916 13300 6767 1 109.50000 418.400000
5916 13300 7446 1 109.50000 418.400000
6766 13300 6767 1 109.50000 418.400000
6766 13300 7446 1 109.50000 418.400000
6767 13300 7446 1 109.50000 418.400000
5986 13301 6768 1 109.50000 418.400000
5986 13301 6769 1 109.50000 418.400000
5986 13301 6770 1 109.50000 418.400000
6768 13301 6769 1 109.50000 418.400000
6768 13301 6770 1 109.50000 418.400000
6769 13301 6770 1 109.50000 418.400000
3342 13302 6771 1 109.50000 418.400000
3342 13302 6772 1 109.50000 418.400000
3342 13302 6773 1 109.50000 418.400000
6771 13302 6772 1 109.50000 418.400000
6771 13302 6773 1 109.50000 418.400000
6772 13302 6773 1 109.50000 418.400000
2553 13303 6774 1 109.50000 418.400000
2553 13303 6775 1 109.50000 418.400000
2553 13303 6776 1 109.50000 418.400000
6774 13303 6775 1 109.50000 418.400000
6774 13303 6776 1 109.50000 418.400000
6775 13303 6776 1 109.50000 418.400000
6398 13304 6400 1 109.50000 418.400000
6398 13304 6777 1 109.50000 418.400000
6398 13304 6779 1 109.50000 418.400000
6400 13304 6777 1 109.50000 418.400000
6400 13304 6779 1 109.50000 418.400000
6777 13304 6779 1 109.50000 418.400000
2134 13305 3702 1 109.50000 418.400000
2134 13305 6781 1 109.50000 418.400000
2134 13305 6782 1 109.50000 418.400000
3702 13305 6781 1 109.50000 418.400000
3702 13305 6782 1 109.50000 418.400000
6781 13305 6782 1 109.50000 418.400000
838 13306 6783 1 109.50000 418.400000
838 13306 6784 1 109.50000 418.400000
838 13306 11210 1 109.50000 418.400000
6783 13306 6784 1 109.50000 418.400000
6783 13306 11210 1 109.50000 418.400000
6784 13306 11210 1 109.50000 418.400000
2625 13307 2627 1 109.50000 418.400000
2625 13307 6786 1 109.50000 418.400000
2625 13307 7373 1 109.50000 418.400000
2627 13307 6786 1 109.50000 418.400000
2627 13307 7373 1 109.50000 418.400000
6786 13307 7373 1 109.50000 418.400000
4569 13308 6788 1 109.50000 418.400000
4569 13308 6789 1 109.50000 418.400000
4569 13308 6790 1 109.50000 418.400000
6788 13308 6789 1 109.50000 418.400000
6788 13308 6790 1 109.50000 418.400000
6789 13308 6790 1 109.50000 418.400000
2948 13309 6791 1 109.50000 418.400000
2948 13309 6792 1 109.50000 418.400000
2948 13309 6793 1 109.50000 418.400000
6791 13309 6792 1 109.50000 418.400000
6791 13309 6793 1 109.50000 418.400000
6792 13309 6793 1 109.50000 418.400000
3712 13310 3714 1 109.50000 418.400000
3712 13310 3957 1 109.50000 418.400000
3712 13310 6795 1 109.50000 418.400000
3714 13310 3957 1 109.50000 418.400000
3714 13310 6795 1 109.50000 418.400000
3957 13310 6795 1 109.50000 418.400000
1633 13311 5232 1 109.50000 418.400000
1633 13311 6796 1 109.50000 418.400000
1633 13311 6797 1 109.50000 418.400000
5232 13311 6796 1 109.50000 418.400000
5232 13311 6797 1 109.50000 418.400000
6796 13311 6797 1 109.50000 418.400000
5051 13312 6798 1 109.50000 418.400000
5051 13312 6799 1 109.50000 418.400000
5051 13312 6800 1 109.50000 418.400000
6798 13312 6799 1 109.50000 418.400000
6798 13312 6800 1 109.50000 418.400000
6799 13312 6800 1 109.50000 418.400000
3294 13313 6801 1 109.50000 418.400000
3294 13313 6802 1 109.50000 418.400000
3294 13313 6803 1 109.50000 418.400000
6801 13313 6802 1 109.50000 418.400000
6801 13313 6803 1 109.50000 418.400000
6802 13313 6803 1 109.50000 418.400000
5917 13314 6804 1 109.50000 418.400000
5917 13314 6805 1 109.50000 418.400000
5917 13314 6806 1 109.50000 418.400000
6804 13314 6805 1 109.50000 418.400000
6804 13314 6806 1 109.50000 418.400000
6805 13314 6806 1 109.50000 418.400000
1693 13315 6807 1 109.50000 418.400000
1693 13315 6808 1 109.50000 418.400000
1693 13315 6809 1 109.50000 418.400000
6807 13315 6808 1 109.50000 418.400000
6807 13315 6809 1 109.50000 418.400000
6808 13315 6809 1 109.50000 418.400000
584 13316 3572 1 109.50000 418.400000
584 13316 3884 1 109.50000 418.400000
584 13316 5351 1 109.50000 418.400000
3572 13316 3884 1 109.50000 418.400000
3572 13316 5351 1 109.50000 418.400000
3884 13316 5351 1 109.50000 418.400000
3151 13317 4152 1 109.50000 418.400000
3151 13317 6349 1 109.50000 418.400000
3151 13317 6811 1 109.50000 418.400000
4152 13317 6349 1 109.50000 418.400000
4152 13317 6811 1 109.50000 418.400000
6349 13317 6811 1 109.50000 418.400000
3487 13318 4189 1 109.50000 418.400000
3487 13318 6423 1 109.50000 418.400000
3487 13318 6812 1 109.50000 418.400000
4189 13318 6423 1 109.50000 418.400000
4189 13318 6812 1 109.50000 418.400000
6423 13318 6812 1 109.50000 418.400000
935 13319 3522 1 109.50000 418.400000
935 13319 6813 1 109.50000 418.400000
935 13319 6814 1 109.50000 418.400000
3522 13319 6813 1 109.50000 418.400000
3522 13319 6814 1 109.50000 418.400000
6813 13319 6814 1 109.50000 418.400000
3474 13320 3873 1 109.50000 418.400000
3474 13320 6815 1 109.50000 418.400000
3474 13320 6816 1 109.50000 418.400000
3873 13320 6815 1 109.50000 418.400000
3873 13320 6816 1 109.50000 418.400000
6815 13320 6816 1 109.50000 418.400000
4104 13321 6354 1 109.50000 418.400000
4104 13321 6817 1 109.50000 418.400000
4104 13321 6818 1 109.50000 418.400000
6354 13321 6817 1 109.50000 418.400000
6354 13321 6818 1 109.50000 418.400000
6817 13321 6818 1 109.50000 418.400000
6819 13322 6820 1 109.50000 418.400000
6819 13322 6821 1 109.50000 418.400000
6819 13322 6822 1 109.50000 418.400000
6820 13322 6821 1 109.50000 418.400000
6820 13322 6822 1 109.50000 418.400000
6821 13322 6822 1 109.50000 418.400000
1958 13323 6823 1 109.50000 418.400000
1958 13323 6824 1 109.50000 418.400000
1958 13323 11306 1 109.50000 418.400000
6823 13323 6824 1 109.50000 418.400000
6823 13323 11306 1 109.50000 418.400000
6824 13323 11306 1 109.50000 418.400000
1289 13324 1648 1 109.50000 418.400000
1289 13324 3480 1 109.50000 418.400000
1289 13324 3577 1 109.50000 418.400000
1648 13324 3480 1 109.50000 418.400000
1648 13324 3577 1 109.50000 418.400000
3480 13324 3577 1 109.50000 418.400000
5229 13325 6825 1 109.50000 418.400000
5229 13325 6826 1 109.50000 418.400000
5229 13325 6827 1 109.50000 418.400000
6825 13325 6826 1 109.50000 418.400000
6825 13325 6827 1 109.50000 418.400000
6826 13325 6827 1 109.50000 418.400000
4949 13326 6828 1 109.50000 418.400000
4949 13326 6829 1 109.50000 418.400000
4949 13326 6830 1 109.50000 418.400000
6828 13326 6829 1 109.50000 418.400000
6828 13326 6830 1 109.50000 418.400000
6829 13326 6830 1 109.50000 418.400000
478 13327 3146 1 109.50000 418.400000
478 13327 6831 1 109.50000 418.400000
478 13327 6832 1 109.50000 418.400000
3146 13327 6831 1 109.50000 418.400000
3146 13327 6832 1 109.50000 418.400000
6831 13327 6832 1 109.50000 418.400000
5824 13328 6502 1 109.50000 418.400000
5824 13328 6833 1 109.50000 418.400000
5824 13328 6834 1 109.50000 418.400000
6502 13328 6833 1 109.50000 418.400000
6502 13328 6834 1 109.50000 418.400000
6833 13328 6834 1 109.50000 418.400000
6214 13329 6835 1 109.50000 418.400000
6214 13329 6837 1 109.50000 418.400000
6214 13329 7878 1 109.50000 418.400000
6835 13329 6837 1 109.50000 418.400000
6835 13329 7878 1 109.50000 418.400000
6837 13329 7878 1 109.50000 418.400000
716 13330 2640 1 109.50000 418.400000
716 13330 6838 1 109.50000 418.400000
716 13330 6839 1 109.50000 418.400000
2640 13330 6838 1 109.50000 418.400000
2640 13330 6839 1 109.50000 418.400000
6838 13330 6839 1 109.50000 418.400000
2171 13331 2984 1 109.50000 418.400000
2171 13331 3859 1 109.50000 418.400000
2171 13331 6840 1 109.50000 418.400000
2984 13331 3859 1 109.50000 418.400000
2984 13331 6840 1 109.50000 418.400000
3859 13331 6840 1 109.50000 418.400000
993 13332 6802 1 109.50000 418.400000
993 13332 6841 1 109.50000 418.400000
993 13332 6842 1 109.50000 418.400000
6802 13332 6841 1 109.50000 418.400000
6802 13332 6842 1 109.50000 418.400000
6841 13332 6842 1 109.50000 418.400000
4297 13333 5407 1 109.50000 418.400000
4297 13333 6843 1 109.50000 418.400000
4297 13333 6844 1 109.50000 418.400000
5407 13333 6843 1 109.50000 418.400000
5407 13333 6844 1 109.50000 418.400000
6843 13333 6844 1 109.50000 418.400000
6845 13334 6846 1 109.50000 418.400000
6845 13334 6847 1 109.50000 418.400000
6845 13334 6848 1 109.50000 418.400000
6846 13334 6847 1 109.50000 418.400000
6846 13334 6848 1 109.50000 418.400000
6847 13334 6848 1 109.50000 418.400000
3871 13335 6849 1 109.50000 418.400000
3871 13335 6850 1 109.50000 418.400000
3871 13335 6851 1 109.50000 418.400000
6849 13335 6850 1 109.50000 418.400000
6849 13335 6851 1 109.50000 418.400000
6850 13335 6851 1 109.50000 418.400000
1981 13336 3762 1 109.50000 418.400000
1981 13336 6852 1 109.50000 418.400000
1981 13336 6853 1 109.50000 418.400000
3762 13336 6852 1 109.50000 418.400000
3762 13336 6853 1 109.50000 418.400000
6852 13336 6853 1 109.50000 418.400000
3379 13337 4995 1 109.50000 418.400000
3379 13337 6854 1 109.50000 418.400000
3379 13337 6855 1 109.50000 418.400000
4995 13337 6854 1 109.50000 418.400000
4995 13337 6855 1 109.50000 418.400000
6854 13337 6855 1 109.50000 418.400000
6856 13338 6857 1 109.50000 418.400000
6856 13338 6858 1 109.50000 418.400000
6856 13338 6859 1 109.50000 418.400000
6857 13338 6858 1 109.50000 418.400000
6857 13338 6859 1 109.50000 418.400000
6858 13338 6859 1 109.50000 418.400000
3289 13339 3937 1 109.50000 418.400000
3289 13339 6860 1 109.50000 418.400000
3289 13339 6862 1 109.50000 418.400000
3937 13339 6860 1 109.50000 418.400000
3937 13339 6862 1 109.50000 418.400000
6860 13339 6862 1 109.50000 418.400000
2575 13340 2600 1 109.50000 418.400000
2575 13340 6188 1 109.50000 418.400000
2575 13340 6863 1 109.50000 418.400000
2600 13340 6188 1 109.50000 418.400000
2600 13340 6863 1 109.50000 418.400000
6188 13340 6863 1 109.50000 418.400000
4228 13341 6864 1 109.50000 418.400000
4228 13341 6865 1 109.50000 418.400000
4228 13341 6866 1 109.50000 418.400000
6864 13341 6865 1 109.50000 418.400000
6864 13341 6866 1 109.50000 418.400000
6865 13341 6866 1 109.50000 418.400000
711 13342 6868 1 109.50000 418.400000
711 13342 6869 1 109.50000 418.400000
711 13342 8735 1 109.50000 418.400000
6868 13342 6869 1 109.50000 418.400000
6868 13342 8735 1 109.50000 418.400000
6869 13342 8735 1 109.50000 418.400000
4859 13343 5202 1 109.50000 418.400000
4859 13343 6870 1 109.50000 418.400000
4859 13343 6871 1 109.50000 418.400000
5202 13343 6870 1 109.50000 418.400000
5202 13343 6871 1 109.50000 418.400000
6870 13343 6871 1 109.50000 418.400000
5408 13344 6872 1 109.50000 418.400000
5408 13344 6873 1 109.50000 418.400000
5408 13344 6874 1 109.50000 418.400000
6872 13344 6873 1 109.50000 418.400000
6872 13344 6874 1 109.50000 418.400000
6873 13344 6874 1 109.50000 418.400000
1888 13345 6875 1 109.50000 418.400000
1888 13345 6876 1 109.50000 418.400000
1888 13345 6877 1 109.50000 418.400000
6875 13345 6876 1 109.50000 418.400000
6875 13345 6877 1 109.50000 418.400000
6876 13345 6877 1 109.50000 418.400000
3199 13346 3273 1 109.50000 418.400000
3199 13346 6878 1 109.50000 418.400000
3199 13346 6879 1 109.50000 418.400000
3273 13346 6878 1 109.50000 418.400000
3273 13346 6879 1 109.50000 418.400000
6878 13346 6879 1 109.50000 418.400000
6020 13347 6880 1 109.50000 418.400000
6020 13347 6881 1 109.50000 418.400000
6020 13347 6882 1 109.50000 418.400000
6880 13347 6881 1 109.50000 418.400000
6880 13347 6882 1 109.50000 418.400000
6881 13347 6882 1 109.50000 418.400000
2781 13348 6544 1 109.50000 418.400000
2781 13348 6883 1 109.50000 418.400000
2781 13348 6884 1 109.50000 418.400000
6544 13348 6883 1 109.50000 418.400000
6544 13348 6884 1 109.50000 418.400000
6883 13348 6884 1 109.50000 418.400000
462 13349 3890 1 109.50000 418.400000
462 13349 6885 1 109.50000 418.400000
462 13349 6886 1 109.50000 418.400000
3890 13349 6885 1 109.50000 418.400000
3890 13349 6886 1 109.50000 418.400000
6885 13349 6886 1 109.50000 418.400000
1391 13350 3797 1 109.50000 418.400000
1391 13350 3867 1 109.50000 418.400000
1391 13350 6887 1 109.50000 418.400000
3797 13350 3867 1 109.50000 418.400000
3797 13350 6887 1 109.50000 418.400000
3867 13350 6887 1 109.50000 418.400000
1315 13351 1473 1 109.50000 418.400000
1315 13351 4526 1 109.50000 418.400000
1315 13351 6888 1 109.50000 418.400000
1473 13351 4526 1 109.50000 418.400000
1473 13351 6888 1 109.50000 418.400000
4526 13351 6888 1 109.50000 418.400000
3371 13352 6889 1 109.50000 418.400000
3371 13352 6890 1 109.50000 418.400000
3371 13352 6961 1 109.50000 418.400000
6889 13352 6890 1 109.50000 418.400000
6889 13352 6961 1 109.50000 418.400000
6890 13352 6961 1 109.50000 418.400000
2554 13353 5964 1 109.50000 418.400000
2554 13353 6891 1 109.50000 418.400000
2554 13353 6892 1 109.50000 418.400000
5964 13353 6891 1 109.50000 418.400000
5964 13353 6892 1 109.50000 418.400000
6891 13353 6892 1 109.50000 418.400000
3012 13354 3719 1 109.50000 418.400000
3012 13354 6893 1 109.50000 418.400000
3012 13354 6894 1 109.50000 418.400000
3719 13354 6893 1 109.50000 418.400000
3719 13354 6894 1 109.50000 418.400000
6893 13354 6894 1 109.50000 418.400000
6895 13355 6896 1 109.50000 418.400000
6895 13355 6898 1 109.50000 418.400000
6895 13355 10480 1 109.50000 418.400000
6896 13355 6898 1 109.50000 418.400000
6896 13355 10480 1 109.50000 418.400000
6898 13355 10480 1 109.50000 418.400000
3419 13356 6899 1 109.50000 418.400000
3419 13356 6900 1 109.50000 418.400000
3419 13356 11178 1 109.50000 418.400000
6899 13356 6900 1 109.50000 418.400000
6899 13356 11178 1 109.50000 418.400000
6900 13356 11178 1 109.50000 418.400000
5922 13357 6902 1 109.50000 418.400000
5922 13357 6903 1 109.50000 418.400000
5922 13357 6904 1 109.50000 418.400000
6902 13357 6903 1 109.50000 418.400000
6902 13357 6904 1 109.50000 418.400000
6903 13357 6904 1 109.50000 418.400000
3181 13358 4359 1 109.50000 418.400000
3181 13358 5431 1 109.50000 418.400000
3181 13358 6905 1 109.50000 418.400000
4359 13358 5431 1 109.50000 418.400000
4359 13358 6905 1 109.50000 418.400000
5431 13358 6905 1 109.50000 418.400000
6906 13359 6907 1 109.50000 418.400000
6906 13359 6908 1 109.50000 418.400000
6906 13359 6909 1 109.50000 418.400000
6907 13359 6908 1 109.50000 418.400000
6907 13359 6909 1 109.50000 418.400000
6908 13359 6909 1 109.50000 418.400000
3330 13360 5739 1 109.50000 418.400000
3330 13360 6697 1 109.50000 418.400000
3330 13360 6910 1 109.50000 418.400000
5739 13360 6697 1 109.50000 418.400000
5739 13360 6910 1 109.50000 418.400000
6697 13360 6910 1 109.50000 418.400000
4895 13361 6368 1 109.50000 418.400000
4895 13361 6911 1 109.50000 418.400000
4895 13361 6912 1 109.50000 418.400000
6368 13361 6911 1 109.50000 418.400000
6368 13361 6912 1 109.50000 418.400000
6911 13361 6912 1 109.50000 418.400000
2029 13362 6913 1 109.50000 418.400000
2029 13362 6914 1 109.50000 418.400000
2029 13362 6915 1 109.50000 418.400000
6913 13362 6914 1 109.50000 418.400000
6913 13362 6915 1 109.50000 418.400000
6914 13362 6915 1 109.50000 418.400000
2015 13363 6916 1 109.50000 418.400000
2015 13363 6917 1 109.50000 418.400000
2015 13363 11333 1 109.50000 418.400000
6916 13363 6917 1 109.50000 418.400000
6916 13363 11333 1 109.50000 418.400000
6917 13363 11333 1 109.50000 418.400000
6476 13364 6918 1 109.50000 418.400000
6476 13364 6919 1 109.50000 418.400000
6476 13364 6920 1 109.50000 418.400000
6918 13364 6919 1 109.50000 418.400000
6918 13364 6920 1 109.50000 418.400000
6919 13364 6920 1 109.50000 418.400000
6202 13365 6922 1 109.50000 418.400000
6202 13365 6923 1 109.50000 418.400000
6202 13365 7506 1 109.50000 418.400000
6922 13365 6923 1 109.50000 418.400000
6922 13365 7506 1 109.50000 418.400000
6923 13365 7506 1 109.50000 418.400000
391 13366 2238 1 109.50000 418.400000
391 13366 3325 1 109.50000 418.400000
391 13366 6925 1 109.50000 418.400000
2238 13366 3325 1 109.50000 418.400000
2238 13366 6925 1 109.50000 418.400000
3325 13366 6925 1 109.50000 418.400000
4609 13367 6927 1 109.50000 418.400000
4609 13367 6928 1 109.50000 418.400000
4609 13367 6929 1 109.50000 418.400000
6927 13367 6928 1 109.50000 418.400000
6927 13367 6929 1 109.50000 418.400000
6928 13367 6929 1 109.50000 418.400000
1163 13368 2229 1 109.50000 418.400000
1163 13368 2661 1 109.50000 418.400000
1163 13368 6930 1 109.50000 418.400000
2229 13368 2661 1 109.50000 418.400000
2229 13368 6930 1 109.50000 418.400000
2661 13368 6930 1 109.50000 418.400000
2278 13369 6831 1 109.50000 418.400000
2278 13369 6933 1 109.50000 418.400000
2278 13369 6934 1 109.50000 418.400000
6831 13369 6933 1 109.50000 418.400000
6831 13369 6934 1 109.50000 418.400000
6933 13369 6934 1 109.50000 418.400000
5716 13370 6935 1 109.50000 418.400000
5716 13370 6936 1 109.50000 418.400000
5716 13370 6937 1 109.50000 418.400000
6935 13370 6936 1 109.50000 418.400000
6935 13370 6937 1 109.50000 418.400000
6936 13370 6937 1 109.50000 418.400000
6655 13371 6938 1 109.50000 418.400000
6655 13371 6939 1 109.50000 418.400000
6655 13371 6940 1 109.50000 418.400000
6938 13371 6939 1 109.50000 418.400000
6938 13371 6940 1 109.50000 418.400000
6939 13371 6940 1 109.50000 418.400000
2645 13372 6941 1 109.50000 418.400000
2645 13372 6942 1 109.50000 418.400000
2645 13372 6943 1 109.50000 418.400000
6941 13372 6942 1 109.50000 418.400000
6941 13372 6943 1 109.50000 418.400000
6942 13372 6943 1 109.50000 418.400000
5433 13373 5878 1 109.50000 418.400000
5433 13373 6944 1 109.50000 418.400000
5433 13373 6945 1 109.50000 418.400000
5878 13373 6944 1 109.50000 418.400000
5878 13373 6945 1 109.50000 418.400000
6944 13373 6945 1 109.50000 418.400000
3852 13374 5201 1 109.50000 418.400000
3852 13374 6946 1 109.50000 418.400000
3852 13374 6947 1 109.50000 418.400000
5201 13374 6946 1 109.50000 418.400000
5201 13374 6947 1 109.50000 418.400000
6946 13374 6947 1 109.50000 418.400000
6951 13375 6952 1 109.50000 418.400000
6951 13375 6953 1 109.50000 418.400000
6951 13375 6954 1 109.50000 418.400000
6952 13375 6953 1 109.50000 418.400000
6952 13375 6954 1 109.50000 418.400000
6953 13375 6954 1 109.50000 418.400000
624 13376 6955 1 109.50000 418.400000
624 13376 6956 1 109.50000 418.400000
624 13376 6957 1 109.50000 418.400000
6955 13376 6956 1 109.50000 418.400000
6955 13376 6957 1 109.50000 418.400000
6956 13376 6957 1 109.50000 418.400000
2226 13377 4100 1 109.50000 418.400000
2226 13377 4101 1 109.50000 418.400000
2226 13377 6958 1 109.50000 418.400000
4100 13377 4101 1 109.50000 418.400000
4100 13377 6958 1 109.50000 418.400000
4101 13377 6958 1 109.50000 418.400000
2314 13378 2362 1 109.50000 418.400000
2314 13378 2369 1 109.50000 418.400000
2314 13378 6960 1 109.50000 418.400000
2362 13378 2369 1 109.50000 418.400000
2362 13378 6960 1 109.50000 418.400000
2369 13378 6960 1 109.50000 418.400000
4433 13379 5666 1 109.50000 418.400000
4433 13379 6961 1 109.50000 418.400000
4433 13379 11288 1 109.50000 418.400000
5666 13379 6961 1 109.50000 418.400000
5666 13379 11288 1 109.50000 418.400000
6961 13379 11288 1 109.50000 418.400000
2637 13380 6962 1 109.50000 418.400000
2637 13380 6963 1 109.50000 418.400000
2637 13380 7739 1 109.50000 418.400000
6962 13380 6963 1 109.50000 418.400000
6962 13380 7739 1 109.50000 418.400000
6963 13380 7739 1 109.50000 418.400000
4912 13381 6966 1 109.50000 418.400000
4912 13381 6967 1 109.50000 418.400000
4912 13381 8893 1 109.50000 418.400000
6966 13381 6967 1 109.50000 418.400000
6966 13381 8893 1 109.50000 418.400000
6967 13381 8893 1 109.50000 418.400000
1829 13382 4922 1 109.50000 418.400000
1829 13382 5163 1 109.50000 418.400000
1829 13382 6968 1 109.50000 418.400000
4922 13382 5163 1 109.50000 418.400000
4922 13382 6968 1 109.50000 418.400000
5163 13382 6968 1 109.50000 418.400000
2510 13383 3728 1 109.50000 418.400000
2510 13383 3729 1 109.50000 418.400000
2510 13383 6970 1 109.50000 418.400000
3728 13383 3729 1 109.50000 418.400000
3728 13383 6970 1 109.50000 418.400000
3729 13383 6970 1 109.50000 418.400000
1723 13384 6972 1 109.50000 418.400000
1723 13384 6973 1 109.50000 418.400000
1723 13384 6974 1 109.50000 418.400000
6972 13384 6973 1 109.50000 418.400000
6972 13384 6974 1 109.50000 418.400000
6973 13384 6974 1 109.50000 418.400000
6096 13385 6975 1 109.50000 418.400000
6096 13385 6976 1 109.50000 418.400000
6096 13385 6977 1 109.50000 418.400000
6975 13385 6976 1 109.50000 418.400000
6975 13385 6977 1 109.50000 418.400000
6976 13385 6977 1 109.50000 418.400000
5802 13386 6979 1 109.50000 418.400000
5802 13386 6980 1 109.50000 418.400000
5802 13386 6981 1 109.50000 418.400000
6979 13386 6980 1 109.50000 418.400000
6979 13386 6981 1 109.50000 418.400000
6980 13386 6981 1 109.50000 418.400000
5422 13387 6527 1 109.50000 418.400000
5422 13387 6982 1 109.50000 418.400000
5422 13387 6983 1 109.50000 418.400000
6527 13387 6982 1 109.50000 418.400000
6527 13387 6983 1 109.50000 418.400000
6982 13387 6983 1 109.50000 418.400000
2728 13388 6984 1 109.50000 418.400000
2728 13388 6985 1 109.50000 418.400000
2728 13388 6986 1 109.50000 418.400000
6984 13388 6985 1 109.50000 418.400000
6984 13388 6986 1 109.50000 418.400000
6985 13388 6986 1 109.50000 418.400000
2470 13389 6987 1 109.50000 418.400000
2470 13389 6988 1 109.50000 418.400000
2470 13389 10625 1 109.50000 418.400000
6987 13389 6988 1 109.50000 418.400000
6987 13389 10625 1 109.50000 418.400000
6988 13389 10625 1 109.50000 418.400000
5485 13390 6676 1 109.50000 418.400000
5485 13390 6989 1 109.50000 418.400000
5485 13390 6990 1 109.50000 418.400000
6676 13390 6989 1 109.50000 418.400000
6676 13390 6990 1 109.50000 418.400000
6989 13390 6990 1 109.50000 418.400000
1085 13391 2907 1 109.50000 418.400000
1085 13391 6991 1 109.50000 418.400000
1085 13391 6992 1 109.50000 418.400000
2907 13391 6991 1 109.50000 418.400000
2907 13391 6992 1 109.50000 418.400000
6991 13391 6992 1 109.50000 418.400000
573 13392 2760 1 109.50000 418.400000
573 13392 6993 1 109.50000 418.400000
573 13392 6994 1 109.50000 418.400000
2760 13392 6993 1 109.50000 418.400000
2760 13392 6994 1 109.50000 418.400000
6993 13392 6994 1 109.50000 418.400000
4036 13393 4254 1 109.50000 418.400000
4036 13393 6995 1 109.50000 418.400000
4036 13393 6996 1 109.50000 418.400000
4254 13393 6995 1 109.50000 418.400000
4254 13393 6996 1 109.50000 418.400000
6995 13393 6996 1 109.50000 418.400000
1688 13394 2617 1 109.50000 418.400000
1688 13394 6691 1 109.50000 418.400000
1688 13394 6997 1 109.50000 418.400000
2617 13394 6691 1 109.50000 418.400000
2617 13394 6997 1 109.50000 418.400000
6691 13394 6997 1 109.50000 418.400000
228 13395 3445 1 109.50000 418.400000
228 13395 6998 1 109.50000 418.400000
228 13395 6999 1 109.50000 418.400000
3445 13395 6998 1 109.50000 418.400000
3445 13395 6999 1 109.50000 418.400000
6998 13395 6999 1 109.50000 418.400000
172 13396 2673 1 109.50000 418.400000
172 13396 5088 1 109.50000 418.400000
172 13396 7000 1 109.50000 418.400000
2673 13396 5088 1 109.50000 418.400000
2673 13396 7000 1 109.50000 418.400000
5088 13396 7000 1 109.50000 418.400000
2043 13397 4814 1 109.50000 418.400000
2043 13397 7001 1 109.50000 418.400000
2043 13397 11297 1 109.50000 418.400000
4814 13397 7001 1 109.50000 418.400000
4814 13397 11297 1 109.50000 418.400000
7001 13397 11297 1 109.50000 418.400000
510 13398 3268 1 109.50000 418.400000
510 13398 6257 1 109.50000 418.400000
510 13398 7002 1 109.50000 418.400000
3268 13398 6257 1 109.50000 418.400000
3268 13398 7002 1 109.50000 418.400000
6257 13398 7002 1 109.50000 418.400000
2660 13399 7003 1 109.50000 418.400000
2660 13399 7004 1 109.50000 418.400000
2660 13399 7005 1 109.50000 418.400000
7003 13399 7004 1 109.50000 418.400000
7003 13399 7005 1 109.50000 418.400000
7004 13399 7005 1 109.50000 418.400000
4630 13400 5386 1 109.50000 418.400000
4630 13400 6732 1 109.50000 418.400000
4630 13400 7006 1 109.50000 418.400000
5386 13400 6732 1 109.50000 418.400000
5386 13400 7006 1 109.50000 418.400000
6732 13400 7006 1 109.50000 418.400000
5710 13401 7007 1 109.50000 418.400000
5710 13401 7008 1 109.50000 418.400000
5710 13401 7009 1 109.50000 418.400000
7007 13401 7008 1 109.50000 418.400000
7007 13401 7009 1 109.50000 418.400000
7008 13401 7009 1 109.50000 418.400000
1822 13402 7010 1 109.50000 418.400000
1822 13402 7011 1 109.50000 418.400000
1822 13402 7012 1 109.50000 418.400000
7010 13402 7011 1 109.50000 418.400000
7010 13402 7012 1 109.50000 418.400000
7011 13402 7012 1 109.50000 418.400000
7013 13403 7014 1 109.50000 418.400000
7013 13403 7015 1 109.50000 418.400000
7013 13403 7016 1 109.50000 418.400000
7014 13403 7015 1 109.50000 418.400000
7014 13403 7016 1 109.50000 418.400000
7015 13403 7016 1 109.50000 418.400000
2319 13404 4412 1 109.50000 418.400000
2319 13404 7017 1 109.50000 418.400000
2319 13404 7018 1 109.50000 418.400000
4412 13404 7017 1 109.50000 418.400000
4412 13404 7018 1 109.50000 418.400000
7017 13404 7018 1 109.50000 418.400000
164 13405 7021 1 109.50000 418.400000
164 13405 7022 1 109.50000 418.400000
164 13405 7023 1 109.50000 418.400000
7021 13405 7022 1 109.50000 418.400000
7021 13405 7023 1 109.50000 418.400000
7022 13405 7023 1 109.50000 418.400000
7024 13406 7025 1 109.50000 418.400000
7024 13406 7026 1 109.50000 418.400000
7024 13406 7027 1 109.50000 418.400000
7025 13406 7026 1 109.50000 418.400000
7025 13406 7027 1 109.50000 418.400000
7026 13406 7027 1 109.50000 418.400000
7028 13407 7029 1 109.50000 418.400000
7028 13407 7030 1 109.50000 418.400000
7028 13407 7031 1 109.50000 418.400000
7029 13407 7030 1 109.50000 418.400000
7029 13407 7031 1 109.50000 418.400000
7030 13407 7031 1 109.50000 418.400000
707 13408 7032 1 109.50000 418.400000
707 13408 7033 1 109.50000 418.400000
707 13408 7034 1 109.50000 418.400000
7032 13408 7033 1 109.50000 418.400000
7032 13408 7034 1 109.50000 418.400000
7033 13408 7034 1 109.50000 418.400000
1111 13409 7035 1 109.50000 418.400000
1111 13409 7036 1 109.50000 418.400000
1111 13409 7037 1 109.50000 418.400000
7035 13409 7036 1 109.50000 418.400000
7035 13409 7037 1 109.50000 418.400000
7036 13409 7037 1 109.50000 418.400000
7038 13410 7039 1 109.50000 418.400000
7038 13410 7040 1 109.50000 418.400000
7038 13410 7041 1 109.50000 418.400000
7039 13410 7040 1 109.50000 418.400000
7039 13410 7041 1 109.50000 418.400000
7040 13410 7041 1 109.50000 418.400000
4093 13411 5973 1 109.50000 418.400000
4093 13411 7042 1 109.50000 418.400000
4093 13411 7043 1 109.50000 418.400000
5973 13411 7042 1 109.50000 418.400000
5973 13411 7043 1 109.50000 418.400000
7042 13411 7043 1 109.50000 418.400000
2647 13412 7044 1 109.50000 418.400000
2647 13412 7045 1 109.50000 418.400000
2647 13412 7046 1 109.50000 418.400000
7044 13412 7045 1 109.50000 418.400000
7044 13412 7046 1 109.50000 418.400000
7045 13412 7046 1 109.50000 418.400000
7047 13413 7048 1 109.50000 418.400000
7047 13413 7049 1 109.50000 418.400000
7047 13413 7050 1 109.50000 418.400000
7048 13413 7049 1 109.50000 418.400000
7048 13413 7050 1 109.50000 418.400000
7049 13413 7050 1 109.50000 418.400000
279 13414 2122 1 109.50000 418.400000
279 13414 2680 1 109.50000 418.400000
279 13414 7051 1 109.50000 418.400000
2122 13414 2680 1 109.50000 418.400000
2122 13414 7051 1 109.50000 418.400000
2680 13414 7051 1 109.50000 418.400000
3647 13415 5530 1 109.50000 418.400000
3647 13415 7053 1 109.50000 418.400000
3647 13415 7054 1 109.50000 418.400000
5530 13415 7053 1 109.50000 418.400000
5530 13415 7054 1 109.50000 418.400000
7053 13415 7054 1 109.50000 418.400000
1657 13416 1923 1 109.50000 418.400000
1657 13416 2105 1 109.50000 418.400000
1657 13416 7055 1 109.50000 418.400000
1923 13416 2105 1 109.50000 418.400000
1923 13416 7055 1 109.50000 418.400000
2105 13416 7055 1 109.50000 418.400000
157 13417 6678 1 109.50000 418.400000
157 13417 7056 1 109.50000 418.400000
157 13417 7057 1 109.50000 418.400000
6678 13417 7056 1 109.50000 418.400000
6678 13417 7057 1 109.50000 418.400000
7056 13417 7057 1 109.50000 418.400000
4498 13418 7058 1 109.50000 418.400000
4498 13418 7059 1 109.50000 418.400000
4498 13418 7060 1 109.50000 418.400000
7058 13418 7059 1 109.50000 418.400000
7058 13418 7060 1 109.50000 418.400000
7059 13418 7060 1 109.50000 418.400000
7061 13419 7062 1 109.50000 418.400000
7061 13419 7064 1 109.50000 418.400000
7061 13419 9061 1 109.50000 418.400000
7062 13419 7064 1 109.50000 418.400000
7062 13419 9061 1 109.50000 418.400000
7064 13419 9061 1 109.50000 418.400000
7067 13420 7068 1 109.50000 418.400000
7067 13420 7069 1 109.50000 418.400000
7067 13420 7070 1 109.50000 418.400000
7068 13420 7069 1 109.50000 418.400000
7068 13420 7070 1 109.50000 418.400000
7069 13420 7070 1 109.50000 418.400000
5443 13421 7071 1 109.50000 418.400000
5443 13421 7072 1 109.50000 418.400000
5443 13421 7073 1 109.50000 418.400000
7071 13421 7072 1 109.50000 418.400000
7071 13421 7073 1 109.50000 418.400000
7072 13421 7073 1 109.50000 418.400000
2551 13422 7074 1 109.50000 418.400000
2551 13422 7075 1 109.50000 418.400000
2551 13422 7076 1 109.50000 418.400000
7074 13422 7075 1 109.50000 418.400000
7074 13422 7076 1 109.50000 418.400000
7075 13422 7076 1 109.50000 418.400000
2260 13423 6065 1 109.50000 418.400000
2260 13423 7077 1 109.50000 418.400000
2260 13423 7078 1 109.50000 418.400000
6065 13423 7077 1 109.50000 418.400000
6065 13423 7078 1 109.50000 418.400000
7077 13423 7078 1 109.50000 418.400000
7079 13424 7080 1 109.50000 418.400000
7079 13424 7081 1 109.50000 418.400000
7079 13424 9335 1 109.50000 418.400000
7080 13424 7081 1 109.50000 418.400000
7080 13424 9335 1 109.50000 418.400000
7081 13424 9335 1 109.50000 418.400000
959 13425 3400 1 109.50000 418.400000
959 13425 7083 1 109.50000 418.400000
959 13425 7084 1 109.50000 418.400000
3400 13425 7083 1 109.50000 418.400000
3400 13425 7084 1 109.50000 418.400000
7083 13425 7084 1 109.50000 418.400000
4366 13426 6395 1 109.50000 418.400000
4366 13426 7085 1 109.50000 418.400000
4366 13426 7086 1 109.50000 418.400000
6395 13426 7085 1 109.50000 418.400000
6395 13426 7086 1 109.50000 418.400000
7085 13426 7086 1 109.50000 418.400000
5589 13427 7087 1 109.50000 418.400000
5589 13427 7088 1 109.50000 418.400000
5589 13427 7089 1 109.50000 418.400000
7087 13427 7088 1 109.50000 418.400000
7087 13427 7089 1 109.50000 418.400000
7088 13427 7089 1 109.50000 418.400000
7090 13428 7092 1 109.50000 418.400000
7090 13428 7093 1 109.50000 418.400000
7090 13428 9130 1 109.50000 418.400000
7092 13428 7093 1 109.50000 418.400000
7092 13428 9130 1 109.50000 418.400000
7093 13428 9130 1 109.50000 418.400000
243 13429 3387 1 109.50000 418.400000
243 13429 6097 1 109.50000 418.400000
243 13429 7094 1 109.50000 418.400000
3387 13429 6097 1 109.50000 418.400000
3387 13429 7094 1 109.50000 418.400000
6097 13429 7094 1 109.50000 418.400000
2149 13430 7095 1 109.50000 418.400000
2149 13430 7096 1 109.50000 418.400000
2149 13430 7097 1 109.50000 418.400000
7095 13430 7096 1 109.50000 418.400000
7095 13430 7097 1 109.50000 418.400000
7096 13430 7097 1 109.50000 418.400000
5136 13431 6810 1 109.50000 418.400000
5136 13431 7099 1 109.50000 418.400000
5136 13431 7100 1 109.50000 418.400000
6810 13431 7099 1 109.50000 418.400000
6810 13431 7100 1 109.50000 418.400000
7099 13431 7100 1 109.50000 418.400000
433 13432 4878 1 109.50000 418.400000
433 13432 7101 1 109.50000 418.400000
433 13432 7102 1 109.50000 418.400000
4878 13432 7101 1 109.50000 418.400000
4878 13432 7102 1 109.50000 418.400000
7101 13432 7102 1 109.50000 418.400000
2870 13433 4096 1 109.50000 418.400000
2870 13433 7103 1 109.50000 418.400000
2870 13433 7104 1 109.50000 418.400000
4096 13433 7103 1 109.50000 418.400000
4096 13433 7104 1 109.50000 418.400000
7103 13433 7104 1 109.50000 418.400000
2348 13434 7105 1 109.50000 418.400000
2348 13434 7106 1 109.50000 418.400000
2348 13434 7107 1 109.50000 418.400000
7105 13434 7106 1 109.50000 418.400000
7105 13434 7107 1 109.50000 418.400000
7106 13434 7107 1 109.50000 418.400000
7108 13435 7109 1 109.50000 418.400000
7108 13435 7110 1 109.50000 418.400000
7108 13435 7111 1 109.50000 418.400000
7109 13435 7110 1 109.50000 418.400000
7109 13435 7111 1 109.50000 418.400000
7110 13435 7111 1 109.50000 418.400000
7112 13436 7113 1 109.50000 418.400000
7112 13436 7114 1 109.50000 418.400000
7112 13436 11298 1 109.50000 418.400000
7113 13436 7114 1 109.50000 418.400000
7113 13436 11298 1 109.50000 418.400000
7114 13436 11298 1 109.50000 418.400000
5876 13437 7115 1 109.50000 418.400000
5876 13437 7116 1 109.50000 418.400000
5876 13437 7117 1 109.50000 418.400000
7115 13437 7116 1 109.50000 418.400000
7115 13437 7117 1 109.50000 418.400000
7116 13437 7117 1 109.50000 418.400000
3244 13438 7118 1 109.50000 418.400000
3244 13438 7119 1 109.50000 418.400000
3244 13438 7120 1 109.50000 418.400000
7118 13438 7119 1 109.50000 418.400000
7118 13438 7120 1 109.50000 418.400000
7119 13438 7120 1 109.50000 418.400000
5859 13439 7121 1 109.50000 418.400000
5859 13439 7122 1 109.50000 418.400000
5859 13439 7123 1 109.50000 418.400000
7121 13439 7122 1 109.50000 418.400000
7121 13439 7123 1 109.50000 418.400000
7122 13439 7123 1 109.50000 418.400000
5073 13440 5892 1 109.50000 418.400000
5073 13440 7124 1 109.50000 418.400000
5073 13440 7125 1 109.50000 418.400000
5892 13440 7124 1 109.50000 418.400000
5892 13440 7125 1 109.50000 418.400000
7124 13440 7125 1 109.50000 418.400000
7127 13441 7128 1 109.50000 418.400000
7127 13441 7129 1 109.50000 418.400000
7127 13441 7130 1 109.50000 418.400000
7128 13441 7129 1 109.50000 418.400000
7128 13441 7130 1 109.50000 418.400000
7129 13441 7130 1 109.50000 418.400000
1063 13442 2410 1 109.50000 418.400000
1063 13442 3578 1 109.50000 418.400000
1063 13442 7131 1 109.50000 418.400000
2410 13442 3578 1 109.50000 418.400000
2410 13442 7131 1 109.50000 418.400000
3578 13442 7131 1 109.50000 418.400000
557 13443 3503 1 109.50000 418.400000
557 13443 7133 1 109.50000 418.400000
557 13443 7134 1 109.50000 418.400000
3503 13443 7133 1 109.50000 418.400000
3503 13443 7134 1 109.50000 418.400000
7133 13443 7134 1 109.50000 418.400000
883 13444 7135 1 109.50000 418.400000
883 13444 7136 1 109.50000 418.400000
883 13444 7137 1 109.50000 418.400000
7135 13444 7136 1 109.50000 418.400000
7135 13444 7137 1 109.50000 418.400000
7136 13444 7137 1 109.50000 418.400000
3292 13445 7138 1 109.50000 418.400000
3292 13445 7139 1 109.50000 418.400000
3292 13445 7140 1 109.50000 418.400000
7138 13445 7139 1 109.50000 418.400000
7138 13445 7140 1 109.50000 418.400000
7139 13445 7140 1 109.50000 418.400000
5375 13446 5376 1 109.50000 418.400000
5375 13446 7143 1 109.50000 418.400000
5375 13446 7145 1 109.50000 418.400000
5376 13446 7143 1 109.50000 418.400000
5376 13446 7145 1 109.50000 418.400000
7143 13446 7145 1 109.50000 418.400000
5298 13447 7146 1 109.50000 418.400000
5298 13447 7147 1 109.50000 418.400000
5298 13447 7148 1 109.50000 418.400000
7146 13447 7147 1 109.50000 418.400000
7146 13447 7148 1 109.50000 418.400000
7147 13447 7148 1 109.50000 418.400000
3892 13448 7149 1 109.50000 418.400000
3892 13448 7150 1 109.50000 418.400000
3892 13448 7151 1 109.50000 418.400000
7149 13448 7150 1 109.50000 418.400000
7149 13448 7151 1 109.50000 418.400000
7150 13448 7151 1 109.50000 418.400000
2859 13449 3111 1 109.50000 418.400000
2859 13449 6204 1 109.50000 418.400000
2859 13449 7152 1 109.50000 418.400000
3111 13449 6204 1 109.50000 418.400000
3111 13449 7152 1 109.50000 418.400000
6204 13449 7152 1 109.50000 418.400000
3907 13450 7155 1 109.50000 418.400000
3907 13450 7156 1 109.50000 418.400000
3907 13450 7157 1 109.50000 418.400000
7155 13450 7156 1 109.50000 418.400000
7155 13450 7157 1 109.50000 418.400000
7156 13450 7157 1 109.50000 418.400000
7158 13451 7159 1 109.50000 418.400000
7158 13451 7160 1 109.50000 418.400000
7158 13451 7161 1 109.50000 418.400000
7159 13451 7160 1 109.50000 418.400000
7159 13451 7161 1 109.50000 418.400000
7160 13451 7161 1 109.50000 418.400000
6749 13452 7031 1 109.50000 418.400000
6749 13452 7162 1 109.50000 418.400000
6749 13452 7163 1 109.50000 418.400000
7031 13452 7162 1 109.50000 418.400000
7031 13452 7163 1 109.50000 418.400000
7162 13452 7163 1 109.50000 418.400000
2326 13453 7164 1 109.50000 418.400000
2326 13453 7165 1 109.50000 418.400000
2326 13453 7166 1 109.50000 418.400000
7164 13453 7165 1 109.50000 418.400000
7164 13453 7166 1 109.50000 418.400000
7165 13453 7166 1 109.50000 418.400000
1811 13454 3447 1 109.50000 418.400000
1811 13454 4621 1 109.50000 418.400000
1811 13454 7167 1 109.50000 418.400000
3447 13454 4621 1 109.50000 418.400000
3447 13454 7167 1 109.50000 418.400000
4621 13454 7167 1 109.50000 418.400000
7168 13455 7169 1 109.50000 418.400000
7168 13455 7170 1 109.50000 418.400000
7168 13455 11244 1 109.50000 418.400000
7169 13455 7170 1 109.50000 418.400000
7169 13455 11244 1 109.50000 418.400000
7170 13455 11244 1 109.50000 418.400000
1683 13456 7171 1 109.50000 418.400000
1683 13456 11263 1 109.50000 418.400000
1683 13456 11264 1 109.50000 418.400000
7171 13456 11263 1 109.50000 418.400000
7171 13456 11264 1 109.50000 418.400000
11263 13456 11264 1 109.50000 418.400000
2115 13457 7172 1 109.50000 418.400000
2115 13457 7173 1 109.50000 418.400000
2115 13457 7174 1 109.50000 418.400000
7172 13457 7173 1 109.50000 418.400000
7172 13457 7174 1 109.50000 418.400000
7173 13457 7174 1 109.50000 418.400000
2051 13458 7175 1 109.50000 418.400000
2051 13458 7176 1 109.50000 418.400000
2051 13458 7177 1 109.50000 418.400000
7175 13458 7176 1 109.50000 418.400000
7175 13458 7177 1 109.50000 418.400000
7176 13458 7177 1 109.50000 418.400000
1145 13459 4721 1 109.50000 418.400000
1145 13459 7178 1 109.50000 418.400000
1145 13459 7179 1 109.50000 418.400000
4721 13459 7178 1 109.50000 418.400000
4721 13459 7179 1 109.50000 418.400000
7178 13459 7179 1 109.50000 418.400000
439 13460 4514 1 109.50000 418.400000
439 13460 7181 1 109.50000 418.400000
439 13460 7182 1 109.50000 418.400000
4514 13460 7181 1 109.50000 418.400000
4514 13460 7182 1 109.50000 418.400000
7181 13460 7182 1 109.50000 418.400000
5634 13461 6086 1 109.50000 418.400000
5634 13461 6510 1 109.50000 418.400000
5634 13461 7183 1 109.50000 418.400000
6086 13461 6510 1 109.50000 418.400000
6086 13461 7183 1 109.50000 418.400000
6510 13461 7183 1 109.50000 418.400000
4016 13462 6265 1 109.50000 418.400000
4016 13462 7184 1 109.50000 418.400000
4016 13462 7185 1 109.50000 418.400000
6265 13462 7184 1 109.50000 418.400000
6265 13462 7185 1 109.50000 418.400000
7184 13462 7185 1 109.50000 418.400000
7186 13463 7187 1 109.50000 418.400000
7186 13463 7188 1 109.50000 418.400000
7186 13463 7189 1 109.50000 418.400000
7187 13463 7188 1 109.50000 418.400000
7187 13463 7189 1 109.50000 418.400000
7188 13463 7189 1 109.50000 418.400000
7190 13464 7191 1 109.50000 418.400000
7190 13464 7192 1 109.50000 418.400000
7190 13464 7193 1 109.50000 418.400000
7191 13464 7192 1 109.50000 418.400000
7191 13464 7193 1 109.50000 418.400000
7192 13464 7193 1 109.50000 418.400000
5961 13465 7194 1 109.50000 418.400000
5961 13465 7195 1 109.50000 418.400000
5961 13465 11151 1 109.50000 418.400000
7194 13465 7195 1 109.50000 418.400000
7194 13465 11151 1 109.50000 418.400000
7195 13465 11151 1 109.50000 418.400000
38 13466 3291 1 109.50000 418.400000
38 13466 7196 1 109.50000 418.400000
38 13466 7197 1 109.50000 418.400000
3291 13466 7196 1 109.50000 418.400000
3291 13466 7197 1 109.50000 418.400000
7196 13466 7197 1 109.50000 418.400000
4982 13467 5246 1 109.50000 418.400000
4982 13467 7199 1 109.50000 418.400000
4982 13467 7200 1 109.50000 418.400000
5246 13467 7199 1 109.50000 418.400000
5246 13467 7200 1 109.50000 418.400000
7199 13467 7200 1 109.50000 418.400000
3139 13468 3203 1 109.50000 418.400000
3139 13468 7201 1 109.50000 418.400000
3139 13468 7202 1 109.50000 418.400000
3203 13468 7201 1 109.50000 418.400000
3203 13468 7202 1 109.50000 418.400000
7201 13468 7202 1 109.50000 418.400000
6444 13469 7203 1 109.50000 418.400000
6444 13469 7204 1 109.50000 418.400000
6444 13469 7469 1 109.50000 418.400000
7203 13469 7204 1 109.50000 418.400000
7203 13469 7469 1 109.50000 418.400000
7204 13469 7469 1 109.50000 418.400000
5885 13470 6346 1 109.50000 418.400000
5885 13470 7205 1 109.50000 418.400000
5885 13470 7206 1 109.50000 418.400000
6346 13470 7205 1 109.50000 418.400000
6346 13470 7206 1 109.50000 418.400000
7205 13470 7206 1 109.50000 418.400000
135 13471 3177 1 109.50000 418.400000
135 13471 7207 1 109.50000 418.400000
135 13471 7208 1 109.50000 418.400000
3177 13471 7207 1 109.50000 418.400000
3177 13471 7208 1 109.50000 418.400000
7207 13471 7208 1 109.50000 418.400000
698 13472 4637 1 109.50000 418.400000
698 13472 5355 1 109.50000 418.400000
698 13472 7209 1 109.50000 418.400000
4637 13472 5355 1 109.50000 418.400000
4637 13472 7209 1 109.50000 418.400000
5355 13472 7209 1 109.50000 418.400000
508 13473 3948 1 109.50000 418.400000
508 13473 5676 1 109.50000 418.400000
508 13473 6128 1 109.50000 418.400000
3948 13473 5676 1 109.50000 418.400000
3948 13473 6128 1 109.50000 418.400000
5676 13473 6128 1 109.50000 418.400000
7123 13474 7210 1 109.50000 418.400000
7123 13474 7211 1 109.50000 418.400000
7123 13474 7212 1 109.50000 418.400000
7210 13474 7211 1 109.50000 418.400000
7210 13474 7212 1 109.50000 418.400000
7211 13474 7212 1 109.50000 418.400000
4986 13475 5004 1 109.50000 418.400000
4986 13475 5889 1 109.50000 418.400000
4986 13475 7213 1 109.50000 418.400000
5004 13475 5889 1 109.50000 418.400000
5004 13475 7213 1 109.50000 418.400000
5889 13475 7213 1 109.50000 418.400000
4819 13476 7214 1 109.50000 418.400000
4819 13476 7215 1 109.50000 418.400000
4819 13476 8122 1 109.50000 418.400000
7214 13476 7215 1 109.50000 418.400000
7214 13476 8122 1 109.50000 418.400000
7215 13476 8122 1 109.50000 418.400000
4455 13477 5146 1 109.50000 418.400000
4455 13477 7217 1 109.50000 418.400000
4455 13477 11283 1 109.50000 418.400000
5146 13477 7217 1 109.50000 418.400000
5146 13477 11283 1 109.50000 418.400000
7217 13477 11283 1 109.50000 418.400000
7218 13478 7219 1 109.50000 418.400000
7218 13478 7220 1 109.50000 418.400000
7218 13478 7221 1 109.50000 418.400000
7219 13478 7220 1 109.50000 418.400000
7219 13478 7221 1 109.50000 418.400000
7220 13478 7221 1 109.50000 418.400000
2885 13479 4353 1 109.50000 418.400000
2885 13479 7225 1 109.50000 418.400000
2885 13479 7226 1 109.50000 418.400000
4353 13479 7225 1 109.50000 418.400000
4353 13479 7226 1 109.50000 418.400000
7225 13479 7226 1 109.50000 418.400000
3077 13480 4156 1 109.50000 418.400000
3077 13480 6419 1 109.50000 418.400000
3077 13480 7227 1 109.50000 418.400000
4156 13480 6419 1 109.50000 418.400000
4156 13480 7227 1 109.50000 418.400000
6419 13480 7227 1 109.50000 418.400000
7228 13481 7229 1 109.50000 418.400000
7228 13481 7230 1 109.50000 418.400000
7228 13481 7231 1 109.50000 418.400000
7229 13481 7230 1 109.50000 418.400000
7229 13481 7231 1 109.50000 418.400000
7230 13481 7231 1 109.50000 418.400000
4146 13482 7232 1 109.50000 418.400000
4146 13482 7233 1 109.50000 418.400000
4146 13482 7234 1 109.50000 418.400000
7232 13482 7233 1 109.50000 418.400000
7232 13482 7234 1 109.50000 418.400000
7233 13482 7234 1 109.50000 418.400000
296 13483 297 1 109.50000 418.400000
296 13483 7235 1 109.50000 418.400000
296 13483 7236 1 109.50000 418.400000
297 13483 7235 1 109.50000 418.400000
297 13483 7236 1 109.50000 418.400000
7235 13483 7236 1 109.50000 418.400000
1919 13484 6747 1 109.50000 418.400000
1919 13484 7238 1 109.50000 418.400000
1919 13484 7239 1 109.50000 418.400000
6747 13484 7238 1 109.50000 418.400000
6747 13484 7239 1 109.50000 418.400000
7238 13484 7239 1 109.50000 418.400000
94 13485 7241 1 109.50000 418.400000
94 13485 7242 1 109.50000 418.400000
94 13485 10704 1 109.50000 418.400000
7241 13485 7242 1 109.50000 418.400000
7241 13485 10704 1 109.50000 418.400000
7242 13485 10704 1 109.50000 418.400000
1241 13486 6534 1 109.50000 418.400000
1241 13486 7243 1 109.50000 418.400000
1241 13486 7244 1 109.50000 418.400000
6534 13486 7243 1 109.50000 418.400000
6534 13486 7244 1 109.50000 418.400000
7243 13486 7244 1 109.50000 418.400000
3786 13487 5207 1 109.50000 418.400000
3786 13487 7245 1 109.50000 418.400000
3786 13487 7246 1 109.50000 418.400000
5207 13487 7245 1 109.50000 418.400000
5207 13487 7246 1 109.50000 418.400000
7245 13487 7246 1 109.50000 418.400000
7247 13488 7248 1 109.50000 418.400000
7247 13488 7249 1 109.50000 418.400000
7247 13488 7250 1 109.50000 418.400000
7248 13488 7249 1 109.50000 418.400000
7248 13488 7250 1 109.50000 418.400000
7249 13488 7250 1 109.50000 418.400000
4054 13489 6098 1 109.50000 418.400000
4054 13489 6518 1 109.50000 418.400000
4054 13489 7251 1 109.50000 418.400000
6098 13489 6518 1 109.50000 418.400000
6098 13489 7251 1 109.50000 418.400000
6518 13489 7251 1 109.50000 418.400000
954 13490 3295 1 109.50000 418.400000
954 13490 7193 1 109.50000 418.400000
954 13490 7253 1 109.50000 418.400000
3295 13490 7193 1 109.50000 418.400000
3295 13490 7253 1 109.50000 418.400000
7193 13490 7253 1 109.50000 418.400000
1210 13491 2284 1 109.50000 418.400000
1210 13491 7254 1 109.50000 418.400000
1210 13491 8084 1 109.50000 418.400000
2284 13491 7254 1 109.50000 418.400000
2284 13491 8084 1 109.50000 418.400000
7254 13491 8084 1 109.50000 418.400000
3084 13492 3086 1 109.50000 418.400000
3084 13492 7255 1 109.50000 418.400000
3084 13492 7256 1 109.50000 418.400000
3086 13492 7255 1 109.50000 418.400000
3086 13492 7256 1 109.50000 418.400000
7255 13492 7256 1 109.50000 418.400000
1941 13493 5608 1 109.50000 418.400000
1941 13493 7258 1 109.50000 418.400000
1941 13493 7259 1 109.50000 418.400000
5608 13493 7258 1 109.50000 418.400000
5608 13493 7259 1 109.50000 418.400000
7258 13493 7259 1 109.50000 418.400000
5904 13494 5938 1 109.50000 418.400000
5904 13494 7260 1 109.50000 418.400000
5904 13494 7261 1 109.50000 418.400000
5938 13494 7260 1 109.50000 418.400000
5938 13494 7261 1 109.50000 418.400000
7260 13494 7261 1 109.50000 418.400000
7262 13495 7263 1 109.50000 418.400000
7262 13495 7264 1 109.50000 418.400000
7262 13495 11211 1 109.50000 418.400000
7263 13495 7264 1 109.50000 418.400000
7263 13495 11211 1 109.50000 418.400000
7264 13495 11211 1 109.50000 418.400000
111 13496 451 1 109.50000 418.400000
111 13496 7265 1 109.50000 418.400000
111 13496 7266 1 109.50000 418.400000
451 13496 7265 1 109.50000 418.400000
451 13496 7266 1 109.50000 418.400000
7265 13496 7266 1 109.50000 418.400000
1541 13497 3366 1 109.50000 418.400000
1541 13497 3367 1 109.50000 418.400000
1541 13497 7267 1 109.50000 418.400000
3366 13497 3367 1 109.50000 418.400000
3366 13497 7267 1 109.50000 418.400000
3367 13497 7267 1 109.50000 418.400000
2681 13498 2901 1 109.50000 418.400000
2681 13498 5778 1 109.50000 418.400000
2681 13498 5959 1 109.50000 418.400000
2901 13498 5778 1 109.50000 418.400000
2901 13498 5959 1 109.50000 418.400000
5778 13498 5959 1 109.50000 418.400000
6203 13499 6660 1 109.50000 418.400000
6203 13499 7270 1 109.50000 418.400000
6203 13499 10401 1 109.50000 418.400000
6660 13499 7270 1 109.50000 418.400000
6660 13499 10401 1 109.50000 418.400000
7270 13499 10401 1 109.50000 418.400000
7271 13500 7272 1 109.50000 418.400000
7271 13500 7273 1 109.50000 418.400000
7271 13500 7274 1 109.50000 418.400000
7272 13500 7273 1 109.50000 418.400000
7272 13500 7274 1 109.50000 418.400000
7273 13500 7274 1 109.50000 418.400000
823 13501 4227 1 109.50000 418.400000
823 13501 7275 1 109.50000 418.400000
823 13501 7276 1 109.50000 418.400000
4227 13501 7275 1 109.50000 418.400000
4227 13501 7276 1 109.50000 418.400000
7275 13501 7276 1 109.50000 418.400000
7278 13502 7279 1 109.50000 418.400000
7278 13502 7280 1 109.50000 418.400000
7278 13502 9033 1 109.50000 418.400000
7279 13502 7280 1 109.50000 418.400000
7279 13502 9033 1 109.50000 418.400000
7280 13502 9033 1 109.50000 418.400000
2146 13503 5475 1 109.50000 418.400000
2146 13503 6135 1 109.50000 418.400000
2146 13503 7281 1 109.50000 418.400000
5475 13503 6135 1 109.50000 418.400000
5475 13503 7281 1 109.50000 418.400000
6135 13503 7281 1 109.50000 418.400000
7268 13504 7284 1 109.50000 418.400000
7268 13504 7285 1 109.50000 418.400000
7268 13504 7286 1 109.50000 418.400000
7284 13504 7285 1 109.50000 418.400000
7284 13504 7286 1 109.50000 418.400000
7285 13504 7286 1 109.50000 418.400000
2285 13505 5579 1 109.50000 418.400000
2285 13505 7223 1 109.50000 418.400000
2285 13505 7287 1 109.50000 418.400000
5579 13505 7223 1 109.50000 418.400000
5579 13505 7287 1 109.50000 418.400000
7223 13505 7287 1 109.50000 418.400000
7289 13506 7290 1 109.50000 418.400000
7289 13506 10193 1 109.50000 418.400000
7289 13506 10839 1 109.50000 418.400000
7290 13506 10193 1 109.50000 418.400000
7290 13506 10839 1 109.50000 418.400000
10193 13506 10839 1 109.50000 418.400000
15 13507 7292 1 109.50000 418.400000
15 13507 7293 1 109.50000 418.400000
15 13507 7294 1 109.50000 418.400000
7292 13507 7293 1 109.50000 418.400000
7292 13507 7294 1 109.50000 418.400000
7293 13507 7294 1 109.50000 418.400000
3471 13508 7295 1 109.50000 418.400000
3471 13508 7296 1 109.50000 418.400000
3471 13508 7297 1 109.50000 418.400000
7295 13508 7296 1 109.50000 418.400000
7295 13508 7297 1 109.50000 418.400000
7296 13508 7297 1 109.50000 418.400000
5056 13509 5978 1 109.50000 418.400000
5056 13509 5980 1 109.50000 418.400000
5056 13509 5981 1 109.50000 418.400000
5978 13509 5980 1 109.50000 418.400000
5978 13509 5981 1 109.50000 418.400000
5980 13509 5981 1 109.50000 418.400000
2847 13510 7298 1 109.50000 418.400000
2847 13510 7299 1 109.50000 418.400000
2847 13510 7300 1 109.50000 418.400000
7298 13510 7299 1 109.50000 418.400000
7298 13510 7300 1 109.50000 418.400000
7299 13510 7300 1 109.50000 418.400000
5736 13511 7301 1 109.50000 418.400000
5736 13511 7302 1 109.50000 418.400000
5736 13511 11220 1 109.50000 418.400000
7301 13511 7302 1 109.50000 418.400000
7301 13511 11220 1 109.50000 418.400000
7302 13511 11220 1 109.50000 418.400000
6237 13512 7303 1 109.50000 418.400000
6237 13512 7304 1 109.50000 418.400000
6237 13512 7305 1 109.50000 418.400000
7303 13512 7304 1 109.50000 418.400000
7303 13512 7305 1 109.50000 418.400000
7304 13512 7305 1 109.50000 418.400000
4644 13513 7306 1 109.50000 418.400000
4644 13513 7307 1 109.50000 418.400000
4644 13513 7308 1 109.50000 418.400000
7306 13513 7307 1 109.50000 418.400000
7306 13513 7308 1 109.50000 418.400000
7307 13513 7308 1 109.50000 418.400000
7309 13514 7310 1 109.50000 418.400000
7309 13514 7311 1 109.50000 418.400000
7309 13514 7312 1 109.50000 418.400000
7310 13514 7311 1 109.50000 418.400000
7310 13514 7312 1 109.50000 418.400000
7311 13514 7312 1 109.50000 418.400000
1490 13515 7151 1 109.50000 418.400000
1490 13515 7313 1 109.50000 418.400000
1490 13515 7314 1 109.50000 418.400000
7151 13515 7313 1 109.50000 418.400000
7151 13515 7314 1 109.50000 418.400000
7313 13515 7314 1 109.50000 418.400000
5389 13516 7315 1 109.50000 418.400000
5389 13516 7316 1 109.50000 418.400000
5389 13516 9938 1 109.50000 418.400000
7315 13516 7316 1 109.50000 418.400000
7315 13516 9938 1 109.50000 418.400000
7316 13516 9938 1 109.50000 418.400000
5927 13517 5952 1 109.50000 418.400000
5927 13517 7129 1 109.50000 418.400000
5927 13517 7231 1 109.50000 418.400000
5952 13517 7129 1 109.50000 418.400000
5952 13517 7231 1 109.50000 418.400000
7129 13517 7231 1 109.50000 418.400000
752 13518 2567 1 109.50000 418.400000
752 13518 7317 1 109.50000 418.400000
752 13518 7318 1 109.50000 418.400000
2567 13518 7317 1 109.50000 418.400000
2567 13518 7318 1 109.50000 418.400000
7317 13518 7318 1 109.50000 418.400000
1349 13519 1350 1 109.50000 418.400000
1349 13519 1351 1 109.50000 418.400000
1349 13519 9817 1 109.50000 418.400000
1350 13519 1351 1 109.50000 418.400000
1350 13519 9817 1 109.50000 418.400000
1351 13519 9817 1 109.50000 418.400000
2067 13520 5248 1 109.50000 418.400000
2067 13520 7321 1 109.50000 418.400000
2067 13520 7322 1 109.50000 418.400000
5248 13520 7321 1 109.50000 418.400000
5248 13520 7322 1 109.50000 418.400000
7321 13520 7322 1 109.50000 418.400000
1974 13521 2464 1 109.50000 418.400000
1974 13521 7323 1 109.50000 418.400000
1974 13521 7324 1 109.50000 418.400000
2464 13521 7323 1 109.50000 418.400000
2464 13521 7324 1 109.50000 418.400000
7323 13521 7324 1 109.50000 418.400000
3228 13522 3281 1 109.50000 418.400000
3228 13522 4306 1 109.50000 418.400000
3228 13522 4987 1 109.50000 418.400000
3281 13522 4306 1 109.50000 418.400000
3281 13522 4987 1 109.50000 418.400000
4306 13522 4987 1 109.50000 418.400000
6506 13523 7327 1 109.50000 418.400000
6506 13523 7328 1 109.50000 418.400000
6506 13523 7781 1 109.50000 418.400000
7327 13523 7328 1 109.50000 418.400000
7327 13523 7781 1 109.50000 418.400000
7328 13523 7781 1 109.50000 418.400000
3327 13524 6176 1 109.50000 418.400000
3327 13524 7283 1 109.50000 418.400000
3327 13524 7329 1 109.50000 418.400000
6176 13524 7283 1 109.50000 418.400000
6176 13524 7329 1 109.50000 418.400000
7283 13524 7329 1 109.50000 418.400000
86 13525 4920 1 109.50000 418.400000
86 13525 5187 1 109.50000 418.400000
86 13525 7330 1 109.50000 418.400000
4920 13525 5187 1 109.50000 418.400000
4920 13525 7330 1 109.50000 418.400000
5187 13525 7330 1 109.50000 418.400000
6906 13526 7331 1 109.50000 418.400000
6906 13526 7332 1 109.50000 418.400000
6906 13526 7333 1 109.50000 418.400000
7331 13526 7332 1 109.50000 418.400000
7331 13526 7333 1 109.50000 418.400000
7332 13526 7333 1 109.50000 418.400000
7334 13527 7335 1 109.50000 418.400000
7334 13527 7336 1 109.50000 418.400000
7334 13527 7337 1 109.50000 418.400000
7335 13527 7336 1 109.50000 418.400000
7335 13527 7337 1 109.50000 418.400000
7336 13527 7337 1 109.50000 418.400000
3200 13528 7338 1 109.50000 418.400000
3200 13528 7339 1 109.50000 418.400000
3200 13528 7340 1 109.50000 418.400000
7338 13528 7339 1 109.50000 418.400000
7338 13528 7340 1 109.50000 418.400000
7339 13528 7340 1 109.50000 418.400000
6163 13529 7342 1 109.50000 418.400000
6163 13529 7343 1 109.50000 418.400000
6163 13529 7344 1 109.50000 418.400000
7342 13529 7343 1 109.50000 418.400000
7342 13529 7344 1 109.50000 418.400000
7343 13529 7344 1 109.50000 418.400000
2254 13530 7345 1 109.50000 418.400000
2254 13530 7346 1 109.50000 418.400000
2254 13530 7347 1 109.50000 418.400000
7345 13530 7346 1 109.50000 418.400000
7345 13530 7347 1 109.50000 418.400000
7346 13530 7347 1 109.50000 418.400000
7284 13531 7348 1 109.50000 418.400000
7284 13531 7349 1 109.50000 418.400000
7284 13531 7350 1 109.50000 418.400000
7348 13531 7349 1 109.50000 418.400000
7348 13531 7350 1 109.50000 418.400000
7349 13531 7350 1 109.50000 418.400000
4098 13532 7351 1 109.50000 418.400000
4098 13532 7352 1 109.50000 418.400000
4098 13532 7353 1 109.50000 418.400000
7351 13532 7352 1 109.50000 418.400000
7351 13532 7353 1 109.50000 418.400000
7352 13532 7353 1 109.50000 418.400000
2736 13533 7354 1 109.50000 418.400000
2736 13533 7355 1 109.50000 418.400000
2736 13533 7356 1 109.50000 418.400000
7354 13533 7355 1 109.50000 418.400000
7354 13533 7356 1 109.50000 418.400000
7355 13533 7356 1 109.50000 418.400000
1938 13534 6762 1 109.50000 418.400000
1938 13534 7357 1 109.50000 418.400000
1938 13534 7359 1 109.50000 418.400000
6762 13534 7357 1 109.50000 418.400000
6762 13534 7359 1 109.50000 418.400000
7357 13534 7359 1 109.50000 418.400000
2654 13535 7360 1 109.50000 418.400000
2654 13535 7361 1 109.50000 418.400000
2654 13535 7362 1 109.50000 418.400000
7360 13535 7361 1 109.50000 418.400000
7360 13535 7362 1 109.50000 418.400000
7361 13535 7362 1 109.50000 418.400000
5940 13536 7363 1 109.50000 418.400000
5940 13536 7364 1 109.50000 418.400000
5940 13536 7365 1 109.50000 418.400000
7363 13536 7364 1 109.50000 418.400000
7363 13536 7365 1 109.50000 418.400000
7364 13536 7365 1 109.50000 418.400000
2366 13537 2704 1 109.50000 418.400000
2366 13537 6754 1 109.50000 418.400000
2366 13537 7366 1 109.50000 418.400000
2704 13537 6754 1 109.50000 418.400000
2704 13537 7366 1 109.50000 418.400000
6754 13537 7366 1 109.50000 418.400000
159 13538 3972 1 109.50000 418.400000
159 13538 4882 1 109.50000 418.400000
159 13538 7367 1 109.50000 418.400000
3972 13538 4882 1 109.50000 418.400000
3972 13538 7367 1 109.50000 418.400000
4882 13538 7367 1 109.50000 418.400000
744 13539 3519 1 109.50000 418.400000
744 13539 7369 1 109.50000 418.400000
744 13539 11340 1 109.50000 418.400000
3519 13539 7369 1 109.50000 418.400000
3519 13539 11340 1 109.50000 418.400000
7369 13539 11340 1 109.50000 418.400000
1150 13540 1151 1 109.50000 418.400000
1150 13540 7370 1 109.50000 418.400000
1150 13540 7372 1 109.50000 418.400000
1151 13540 7370 1 109.50000 418.400000
1151 13540 7372 1 109.50000 418.400000
7370 13540 7372 1 109.50000 418.400000
1199 13541 1201 1 109.50000 418.400000
1199 13541 7374 1 109.50000 418.400000
1199 13541 9508 1 109.50000 418.400000
1201 13541 7374 1 109.50000 418.400000
1201 13541 9508 1 109.50000 418.400000
7374 13541 9508 1 109.50000 418.400000
1641 13542 5273 1 109.50000 418.400000
1641 13542 5972 1 109.50000 418.400000
1641 13542 7247 1 109.50000 418.400000
5273 13542 5972 1 109.50000 418.400000
5273 13542 7247 1 109.50000 418.400000
5972 13542 7247 1 109.50000 418.400000
7377 13543 7378 1 109.50000 418.400000
7377 13543 7379 1 109.50000 418.400000
7377 13543 7380 1 109.50000 418.400000
7378 13543 7379 1 109.50000 418.400000
7378 13543 7380 1 109.50000 418.400000
7379 13543 7380 1 109.50000 418.400000
1579 13544 4321 1 109.50000 418.400000
1579 13544 7381 1 109.50000 418.400000
1579 13544 7382 1 109.50000 418.400000
4321 13544 7381 1 109.50000 418.400000
4321 13544 7382 1 109.50000 418.400000
7381 13544 7382 1 109.50000 418.400000
3131 13545 4985 1 109.50000 418.400000
3131 13545 6445 1 109.50000 418.400000
3131 13545 7383 1 109.50000 418.400000
4985 13545 6445 1 109.50000 418.400000
4985 13545 7383 1 109.50000 418.400000
6445 13545 7383 1 109.50000 418.400000
5586 13546 5912 1 109.50000 418.400000
5586 13546 6105 1 109.50000 418.400000
5586 13546 7091 1 109.50000 418.400000
5912 13546 6105 1 109.50000 418.400000
5912 13546 7091 1 109.50000 418.400000
6105 13546 7091 1 109.50000 418.400000
7384 13547 7385 1 109.50000 418.400000
7384 13547 7386 1 109.50000 418.400000
7384 13547 7387 1 109.50000 418.400000
7385 13547 7386 1 109.50000 418.400000
7385 13547 7387 1 109.50000 418.400000
7386 13547 7387 1 109.50000 418.400000
541 13548 3182 1 109.50000 418.400000
541 13548 7388 1 109.50000 418.400000
541 13548 7389 1 109.50000 418.400000
3182 13548 7388 1 109.50000 418.400000
3182 13548 7389 1 109.50000 418.400000
7388 13548 7389 1 109.50000 418.400000
6791 13549 7022 1 109.50000 418.400000
6791 13549 7390 1 109.50000 418.400000
6791 13549 7391 1 109.50000 418.400000
7022 13549 7390 1 109.50000 418.400000
7022 13549 7391 1 109.50000 418.400000
7390 13549 7391 1 109.50000 418.400000
773 13550 4579 1 109.50000 418.400000
773 13550 7392 1 109.50000 418.400000
773 13550 7393 1 109.50000 418.400000
4579 13550 7392 1 109.50000 418.400000
4579 13550 7393 1 109.50000 418.400000
7392 13550 7393 1 109.50000 418.400000
2432 13551 2433 1 109.50000 418.400000
2432 13551 11268 1 109.50000 418.400000
2432 13551 11337 1 109.50000 418.400000
2433 13551 11268 1 109.50000 418.400000
2433 13551 11337 1 109.50000 418.400000
11268 13551 11337 1 109.50000 418.400000
5994 13552 7394 1 109.50000 418.400000
5994 13552 7395 1 109.50000 418.400000
5994 13552 7396 1 109.50000 418.400000
7394 13552 7395 1 109.50000 418.400000
7394 13552 7396 1 109.50000 418.400000
7395 13552 7396 1 109.50000 418.400000
86 13553 88 1 109.50000 418.400000
86 13553 7397 1 109.50000 418.400000
86 13553 7398 1 109.50000 418.400000
88 13553 7397 1 109.50000 418.400000
88 13553 7398 1 109.50000 418.400000
7397 13553 7398 1 109.50000 418.400000
7399 13554 7400 1 109.50000 418.400000
7399 13554 11269 1 109.50000 418.400000
7399 13554 11270 1 109.50000 418.400000
7400 13554 11269 1 109.50000 418.400000
7400 13554 11270 1 109.50000 418.400000
11269 13554 11270 1 109.50000 418.400000
7401 13555 7402 1 109.50000 418.400000
7401 13555 7403 1 109.50000 418.400000
7401 13555 7404 1 109.50000 418.400000
7402 13555 7403 1 109.50000 418.400000
7402 13555 7404 1 109.50000 418.400000
7403 13555 7404 1 109.50000 418.400000
3720 13556 7405 1 109.50000 418.400000
3720 13556 7406 1 109.50000 418.400000
3720 13556 7407 1 109.50000 418.400000
7405 13556 7406 1 109.50000 418.400000
7405 13556 7407 1 109.50000 418.400000
7406 13556 7407 1 109.50000 418.400000
3954 13557 3956 1 109.50000 418.400000
3954 13557 7408 1 109.50000 418.400000
3954 13557 10864 1 109.50000 418.400000
3956 13557 7408 1 109.50000 418.400000
3956 13557 10864 1 109.50000 418.400000
7408 13557 10864 1 109.50000 418.400000
5465 13558 7411 1 109.50000 418.400000
5465 13558 7412 1 109.50000 418.400000
5465 13558 7413 1 109.50000 418.400000
7411 13558 7412 1 109.50000 418.400000
7411 13558 7413 1 109.50000 418.400000
7412 13558 7413 1 109.50000 418.400000
2701 13559 3230 1 109.50000 418.400000
2701 13559 3262 1 109.50000 418.400000
2701 13559 7414 1 109.50000 418.400000
3230 13559 3262 1 109.50000 418.400000
3230 13559 7414 1 109.50000 418.400000
3262 13559 7414 1 109.50000 418.400000
4181 13560 5817 1 109.50000 418.400000
4181 13560 7415 1 109.50000 418.400000
4181 13560 7416 1 109.50000 418.400000
5817 13560 7415 1 109.50000 418.400000
5817 13560 7416 1 109.50000 418.400000
7415 13560 7416 1 109.50000 418.400000
2714 13561 4679 1 109.50000 418.400000
2714 13561 7253 1 109.50000 418.400000
2714 13561 7417 1 109.50000 418.400000
4679 13561 7253 1 109.50000 418.400000
4679 13561 7417 1 109.50000 418.400000
7253 13561 7417 1 109.50000 418.400000
726 13562 7418 1 109.50000 418.400000
726 13562 7419 1 109.50000 418.400000
726 13562 7420 1 109.50000 418.400000
7418 13562 7419 1 109.50000 418.400000
7418 13562 7420 1 109.50000 418.400000
7419 13562 7420 1 109.50000 418.400000
5345 13563 6069 1 109.50000 418.400000
5345 13563 7421 1 109.50000 418.400000
5345 13563 7422 1 109.50000 418.400000
6069 13563 7421 1 109.50000 418.400000
6069 13563 7422 1 109.50000 418.400000
7421 13563 7422 1 109.50000 418.400000
3288 13564 6035 1 109.50000 418.400000
3288 13564 6553 1 109.50000 418.400000
3288 13564 7423 1 109.50000 418.400000
6035 13564 6553 1 109.50000 418.400000
6035 13564 7423 1 109.50000 418.400000
6553 13564 7423 1 109.50000 418.400000
7409 13565 7424 1 109.50000 418.400000
7409 13565 7425 1 109.50000 418.400000
7409 13565 7426 1 109.50000 418.400000
7424 13565 7425 1 109.50000 418.400000
7424 13565 7426 1 109.50000 418.400000
7425 13565 7426 1 109.50000 418.400000
6639 13566 7427 1 109.50000 418.400000
6639 13566 7428 1 109.50000 418.400000
6639 13566 7429 1 109.50000 418.400000
7427 13566 7428 1 109.50000 418.400000
7427 13566 7429 1 109.50000 418.400000
7428 13566 7429 1 109.50000 418.400000
7093 13567 7249 1 109.50000 418.400000
7093 13567 7430 1 109.50000 418.400000
7093 13567 7432 1 109.50000 418.400000
7249 13567 7430 1 109.50000 418.400000
7249 13567 7432 1 109.50000 418.400000
7430 13567 7432 1 109.50000 418.400000
1077 13568 4417 1 109.50000 418.400000
1077 13568 5296 1 109.50000 418.400000
1077 13568 7433 1 109.50000 418.400000
4417 13568 5296 1 109.50000 418.400000
4417 13568 7433 1 109.50000 418.400000
5296 13568 7433 1 109.50000 418.400000
4259 13569 7434 1 109.50000 418.400000
4259 13569 7435 1 109.50000 418.400000
4259 13569 7436 1 109.50000 418.400000
7434 13569 7435 1 109.50000 418.400000
7434 13569 7436 1 109.50000 418.400000
7435 13569 7436 1 109.50000 418.400000
1166 13570 7437 1 109.50000 418.400000
1166 13570 7438 1 109.50000 418.400000
1166 13570 7439 1 109.50000 418.400000
7437 13570 7438 1 109.50000 418.400000
7437 13570 7439 1 109.50000 418.400000
7438 13570 7439 1 109.50000 418.400000
4880 13571 7310 1 109.50000 418.400000
4880 13571 7440 1 109.50000 418.400000
4880 13571 7441 1 109.50000 418.400000
7310 13571 7440 1 109.50000 418.400000
7310 13571 7441 1 109.50000 418.400000
7440 13571 7441 1 109.50000 418.400000
4383 13572 6138 1 109.50000 418.400000
4383 13572 7181 1 109.50000 418.400000
4383 13572 7442 1 109.50000 418.400000
6138 13572 7181 1 109.50000 418.400000
6138 13572 7442 1 109.50000 418.400000
7181 13572 7442 1 109.50000 418.400000
4460 13573 7443 1 109.50000 418.400000
4460 13573 7444 1 109.50000 418.400000
4460 13573 7445 1 109.50000 418.400000
7443 13573 7444 1 109.50000 418.400000
7443 13573 7445 1 109.50000 418.400000
7444 13573 7445 1 109.50000 418.400000
4307 13574 6407 1 109.50000 418.400000
4307 13574 6765 1 109.50000 418.400000
4307 13574 6916 1 109.50000 418.400000
6407 13574 6765 1 109.50000 418.400000
6407 13574 6916 1 109.50000 418.400000
6765 13574 6916 1 109.50000 418.400000
4807 13575 6656 1 109.50000 418.400000
4807 13575 7447 1 109.50000 418.400000
4807 13575 7448 1 109.50000 418.400000
6656 13575 7447 1 109.50000 418.400000
6656 13575 7448 1 109.50000 418.400000
7447 13575 7448 1 109.50000 418.400000
4675 13576 6912 1 109.50000 418.400000
4675 13576 7449 1 109.50000 418.400000
4675 13576 7450 1 109.50000 418.400000
6912 13576 7449 1 109.50000 418.400000
6912 13576 7450 1 109.50000 418.400000
7449 13576 7450 1 109.50000 418.400000
6161 13577 6162 1 109.50000 418.400000
6161 13577 7452 1 109.50000 418.400000
6161 13577 7453 1 109.50000 418.400000
6162 13577 7452 1 109.50000 418.400000
6162 13577 7453 1 109.50000 418.400000
7452 13577 7453 1 109.50000 418.400000
6706 13578 7454 1 109.50000 418.400000
6706 13578 7455 1 109.50000 418.400000
6706 13578 7456 1 109.50000 418.400000
7454 13578 7455 1 109.50000 418.400000
7454 13578 7456 1 109.50000 418.400000
7455 13578 7456 1 109.50000 418.400000
13 13579 2589 1 109.50000 418.400000
13 13579 7457 1 109.50000 418.400000
13 13579 7458 1 109.50000 418.400000
2589 13579 7457 1 109.50000 418.400000
2589 13579 7458 1 109.50000 418.400000
7457 13579 7458 1 109.50000 418.400000
5055 13580 7459 1 109.50000 418.400000
5055 13580 7460 1 109.50000 418.400000
5055 13580 7461 1 109.50000 418.400000
7459 13580 7460 1 109.50000 418.400000
7459 13580 7461 1 109.50000 418.400000
7460 13580 7461 1 109.50000 418.400000
746 13581 1795 1 109.50000 418.400000
746 13581 7462 1 109.50000 418.400000
746 13581 7463 1 109.50000 418.400000
1795 13581 7462 1 109.50000 418.400000
1795 13581 7463 1 109.50000 418.400000
7462 13581 7463 1 109.50000 418.400000
2547 13582 7464 1 109.50000 418.400000
2547 13582 7465 1 109.50000 418.400000
2547 13582 7466 1 109.50000 418.400000
7464 13582 7465 1 109.50000 418.400000
7464 13582 7466 1 109.50000 418.400000
7465 13582 7466 1 109.50000 418.400000
6687 13583 6925 1 109.50000 418.400000
6687 13583 7467 1 109.50000 418.400000
6687 13583 7468 1 109.50000 418.400000
6925 13583 7467 1 109.50000 418.400000
6925 13583 7468 1 109.50000 418.400000
7467 13583 7468 1 109.50000 418.400000
4091 13584 5277 1 109.50000 418.400000
4091 13584 6410 1 109.50000 418.400000
4091 13584 7469 1 109.50000 418.400000
5277 13584 6410 1 109.50000 418.400000
5277 13584 7469 1 109.50000 418.400000
6410 13584 7469 1 109.50000 418.400000
2562 13585 4229 1 109.50000 418.400000
2562 13585 5403 1 109.50000 418.400000
2562 13585 7471 1 109.50000 418.400000
4229 13585 5403 1 109.50000 418.400000
4229 13585 7471 1 109.50000 418.400000
5403 13585 7471 1 109.50000 418.400000
2821 13586 7084 1 109.50000 418.400000
2821 13586 7271 1 109.50000 418.400000
2821 13586 7473 1 109.50000 418.400000
7084 13586 7271 1 109.50000 418.400000
7084 13586 7473 1 109.50000 418.400000
7271 13586 7473 1 109.50000 418.400000
7474 13587 7475 1 109.50000 418.400000
7474 13587 7476 1 109.50000 418.400000
7474 13587 7477 1 109.50000 418.400000
7475 13587 7476 1 109.50000 418.400000
7475 13587 7477 1 109.50000 418.400000
7476 13587 7477 1 109.50000 418.400000
5753 13588 6327 1 109.50000 418.400000
5753 13588 6431 1 109.50000 418.400000
5753 13588 7478 1 109.50000 418.400000
6327 13588 6431 1 109.50000 418.400000
6327 13588 7478 1 109.50000 418.400000
6431 13588 7478 1 109.50000 418.400000
407 13589 3707 1 109.50000 418.400000
407 13589 7479 1 109.50000 418.400000
407 13589 7480 1 109.50000 418.400000
3707 13589 7479 1 109.50000 418.400000
3707 13589 7480 1 109.50000 418.400000
7479 13589 7480 1 109.50000 418.400000
4336 13590 7481 1 109.50000 418.400000
4336 13590 7482 1 109.50000 418.400000
4336 13590 7483 1 109.50000 418.400000
7481 13590 7482 1 109.50000 418.400000
7481 13590 7483 1 109.50000 418.400000
7482 13590 7483 1 109.50000 418.400000
4959 13591 5571 1 109.50000 418.400000
4959 13591 6191 1 109.50000 418.400000
4959 13591 7484 1 109.50000 418.400000
5571 13591 6191 1 109.50000 418.400000
5571 13591 7484 1 109.50000 418.400000
6191 13591 7484 1 109.50000 418.400000
3340 13592 7487 1 109.50000 418.400000
3340 13592 7488 1 109.50000 418.400000
3340 13592 7489 1 109.50000 418.400000
7487 13592 7488 1 109.50000 418.400000
7487 13592 7489 1 109.50000 418.400000
7488 13592 7489 1 109.50000 418.400000
651 13593 7490 1 109.50000 418.400000
651 13593 7491 1 109.50000 418.400000
651 13593 7492 1 109.50000 418.400000
7490 13593 7491 1 109.50000 418.400000
7490 13593 7492 1 109.50000 418.400000
7491 13593 7492 1 109.50000 418.400000
2541 13594 4791 1 109.50000 418.400000
2541 13594 7493 1 109.50000 418.400000
2541 13594 7494 1 109.50000 418.400000
4791 13594 7493 1 109.50000 418.400000
4791 13594 7494 1 109.50000 418.400000
7493 13594 7494 1 109.50000 418.400000
6447 13595 7143 1 109.50000 418.400000
6447 13595 7495 1 109.50000 418.400000
6447 13595 7496 1 109.50000 418.400000
7143 13595 7495 1 109.50000 418.400000
7143 13595 7496 1 109.50000 418.400000
7495 13595 7496 1 109.50000 418.400000
7498 13596 7499 1 109.50000 418.400000
7498 13596 7500 1 109.50000 418.400000
7498 13596 7501 1 109.50000 418.400000
7499 13596 7500 1 109.50000 418.400000
7499 13596 7501 1 109.50000 418.400000
7500 13596 7501 1 109.50000 418.400000
891 13597 7502 1 109.50000 418.400000
891 13597 7503 1 109.50000 418.400000
891 13597 7504 1 109.50000 418.400000
7502 13597 7503 1 109.50000 418.400000
7502 13597 7504 1 109.50000 418.400000
7503 13597 7504 1 109.50000 418.400000
582 13598 5033 1 109.50000 418.400000
582 13598 7505 1 109.50000 418.400000
582 13598 7506 1 109.50000 418.400000
5033 13598 7505 1 109.50000 418.400000
5033 13598 7506 1 109.50000 418.400000
7505 13598 7506 1 109.50000 418.400000
3566 13599 4178 1 109.50000 418.400000
3566 13599 7508 1 109.50000 418.400000
3566 13599 7509 1 109.50000 418.400000
4178 13599 7508 1 109.50000 418.400000
4178 13599 7509 1 109.50000 418.400000
7508 13599 7509 1 109.50000 418.400000
611 13600 6450 1 109.50000 418.400000
611 13600 7511 1 109.50000 418.400000
611 13600 7512 1 109.50000 418.400000
6450 13600 7511 1 109.50000 418.400000
6450 13600 7512 1 109.50000 418.400000
7511 13600 7512 1 109.50000 418.400000
250 13601 253 1 109.50000 418.400000
250 13601 7515 1 109.50000 418.400000
250 13601 8014 1 109.50000 418.400000
253 13601 7515 1 109.50000 418.400000
253 13601 8014 1 109.50000 418.400000
7515 13601 8014 1 109.50000 418.400000
2255 13602 7436 1 109.50000 418.400000
2255 13602 7516 1 109.50000 418.400000
2255 13602 7517 1 109.50000 418.400000
7436 13602 7516 1 109.50000 418.400000
7436 13602 7517 1 109.50000 418.400000
7516 13602 7517 1 109.50000 418.400000
3270 13603 6433 1 109.50000 418.400000
3270 13603 7518 1 109.50000 418.400000
3270 13603 7519 1 109.50000 418.400000
6433 13603 7518 1 109.50000 418.400000
6433 13603 7519 1 109.50000 418.400000
7518 13603 7519 1 109.50000 418.400000
1395 13604 7520 1 109.50000 418.400000
1395 13604 7521 1 109.50000 418.400000
1395 13604 10248 1 109.50000 418.400000
7520 13604 7521 1 109.50000 418.400000
7520 13604 10248 1 109.50000 418.400000
7521 13604 10248 1 109.50000 418.400000
5638 13605 7523 1 109.50000 418.400000
5638 13605 7524 1 109.50000 418.400000
5638 13605 7525 1 109.50000 418.400000
7523 13605 7524 1 109.50000 418.400000
7523 13605 7525 1 109.50000 418.400000
7524 13605 7525 1 109.50000 418.400000
5875 13606 6971 1 109.50000 418.400000
5875 13606 7526 1 109.50000 418.400000
5875 13606 7527 1 109.50000 418.400000
6971 13606 7526 1 109.50000 418.400000
6971 13606 7527 1 109.50000 418.400000
7526 13606 7527 1 109.50000 418.400000
3395 13607 7530 1 109.50000 418.400000
3395 13607 7531 1 109.50000 418.400000
3395 13607 7532 1 109.50000 418.400000
7530 13607 7531 1 109.50000 418.400000
7530 13607 7532 1 109.50000 418.400000
7531 13607 7532 1 109.50000 418.400000
2501 13608 4382 1 109.50000 418.400000
2501 13608 7533 1 109.50000 418.400000
2501 13608 7534 1 109.50000 418.400000
4382 13608 7533 1 109.50000 418.400000
4382 13608 7534 1 109.50000 418.400000
7533 13608 7534 1 109.50000 418.400000
509 13609 3755 1 109.50000 418.400000
509 13609 5782 1 109.50000 418.400000
509 13609 7535 1 109.50000 418.400000
3755 13609 5782 1 109.50000 418.400000
3755 13609 7535 1 109.50000 418.400000
5782 13609 7535 1 109.50000 418.400000
4482 13610 6977 1 109.50000 418.400000
4482 13610 7536 1 109.50000 418.400000
4482 13610 7537 1 109.50000 418.400000
6977 13610 7536 1 109.50000 418.400000
6977 13610 7537 1 109.50000 418.400000
7536 13610 7537 1 109.50000 418.400000
2580 13611 4724 1 109.50000 418.400000
2580 13611 6989 1 109.50000 418.400000
2580 13611 7538 1 109.50000 418.400000
4724 13611 6989 1 109.50000 418.400000
4724 13611 7538 1 109.50000 418.400000
6989 13611 7538 1 109.50000 418.400000
1266 13612 7497 1 109.50000 418.400000
1266 13612 7539 1 109.50000 418.400000
1266 13612 7540 1 109.50000 418.400000
7497 13612 7539 1 109.50000 418.400000
7497 13612 7540 1 109.50000 418.400000
7539 13612 7540 1 109.50000 418.400000
6965 13613 7541 1 109.50000 418.400000
6965 13613 7542 1 109.50000 418.400000
6965 13613 7543 1 109.50000 418.400000
7541 13613 7542 1 109.50000 418.400000
7541 13613 7543 1 109.50000 418.400000
7542 13613 7543 1 109.50000 418.400000
4488 13614 5114 1 109.50000 418.400000
4488 13614 6041 1 109.50000 418.400000
4488 13614 7544 1 109.50000 418.400000
5114 13614 6041 1 109.50000 418.400000
5114 13614 7544 1 109.50000 418.400000
6041 13614 7544 1 109.50000 418.400000
1585 13615 1636 1 109.50000 418.400000
1585 13615 7545 1 109.50000 418.400000
1585 13615 7546 1 109.50000 418.400000
1636 13615 7545 1 109.50000 418.400000
1636 13615 7546 1 109.50000 418.400000
7545 13615 7546 1 109.50000 418.400000
2467 13616 3774 1 109.50000 418.400000
2467 13616 5031 1 109.50000 418.400000
2467 13616 6952 1 109.50000 418.400000
3774 13616 5031 1 109.50000 418.400000
3774 13616 6952 1 109.50000 418.400000
5031 13616 6952 1 109.50000 418.400000
1239 13617 5907 1 109.50000 418.400000
1239 13617 6844 1 109.50000 418.400000
1239 13617 7547 1 109.50000 418.400000
5907 13617 6844 1 109.50000 418.400000
5907 13617 7547 1 109.50000 418.400000
6844 13617 7547 1 109.50000 418.400000
3495 13618 7548 1 109.50000 418.400000
3495 13618 7549 1 109.50000 418.400000
3495 13618 7550 1 109.50000 418.400000
7548 13618 7549 1 109.50000 418.400000
7548 13618 7550 1 109.50000 418.400000
7549 13618 7550 1 109.50000 418.400000
1702 13619 5775 1 109.50000 418.400000
1702 13619 7551 1 109.50000 418.400000
1702 13619 7552 1 109.50000 418.400000
5775 13619 7551 1 109.50000 418.400000
5775 13619 7552 1 109.50000 418.400000
7551 13619 7552 1 109.50000 418.400000
380 13620 3849 1 109.50000 418.400000
380 13620 7553 1 109.50000 418.400000
380 13620 7554 1 109.50000 418.400000
3849 13620 7553 1 109.50000 418.400000
3849 13620 7554 1 109.50000 418.400000
7553 13620 7554 1 109.50000 418.400000
132 13621 3087 1 109.50000 418.400000
132 13621 3247 1 109.50000 418.400000
132 13621 7555 1 109.50000 418.400000
3087 13621 3247 1 109.50000 418.400000
3087 13621 7555 1 109.50000 418.400000
3247 13621 7555 1 109.50000 418.400000
7483 13622 7556 1 109.50000 418.400000
7483 13622 7557 1 109.50000 418.400000
7483 13622 7558 1 109.50000 418.400000
7556 13622 7557 1 109.50000 418.400000
7556 13622 7558 1 109.50000 418.400000
7557 13622 7558 1 109.50000 418.400000
7560 13623 7561 1 109.50000 418.400000
7560 13623 7562 1 109.50000 418.400000
7560 13623 7563 1 109.50000 418.400000
7561 13623 7562 1 109.50000 418.400000
7561 13623 7563 1 109.50000 418.400000
7562 13623 7563 1 109.50000 418.400000
2759 13624 4407 1 109.50000 418.400000
2759 13624 7564 1 109.50000 418.400000
2759 13624 7565 1 109.50000 418.400000
4407 13624 7564 1 109.50000 418.400000
4407 13624 7565 1 109.50000 418.400000
7564 13624 7565 1 109.50000 418.400000
4915 13625 6716 1 109.50000 418.400000
4915 13625 7403 1 109.50000 418.400000
4915 13625 7566 1 109.50000 418.400000
6716 13625 7403 1 109.50000 418.400000
6716 13625 7566 1 109.50000 418.400000
7403 13625 7566 1 109.50000 418.400000
7128 13626 7567 1 109.50000 418.400000
7128 13626 7569 1 109.50000 418.400000
7128 13626 8469 1 109.50000 418.400000
7567 13626 7569 1 109.50000 418.400000
7567 13626 8469 1 109.50000 418.400000
7569 13626 8469 1 109.50000 418.400000
1341 13627 4199 1 109.50000 418.400000
1341 13627 7571 1 109.50000 418.400000
1341 13627 7572 1 109.50000 418.400000
4199 13627 7571 1 109.50000 418.400000
4199 13627 7572 1 109.50000 418.400000
7571 13627 7572 1 109.50000 418.400000
3803 13628 7573 1 109.50000 418.400000
3803 13628 7574 1 109.50000 418.400000
3803 13628 7575 1 109.50000 418.400000
7573 13628 7574 1 109.50000 418.400000
7573 13628 7575 1 109.50000 418.400000
7574 13628 7575 1 109.50000 418.400000
2018 13629 3322 1 109.50000 418.400000
2018 13629 4153 1 109.50000 418.400000
2018 13629 5236 1 109.50000 418.400000
3322 13629 4153 1 109.50000 418.400000
3322 13629 5236 1 109.50000 418.400000
4153 13629 5236 1 109.50000 418.400000
872 13630 3839 1 109.50000 418.400000
872 13630 6761 1 109.50000 418.400000
872 13630 6999 1 109.50000 418.400000
3839 13630 6761 1 109.50000 418.400000
3839 13630 6999 1 109.50000 418.400000
6761 13630 6999 1 109.50000 418.400000
1672 13631 4225 1 109.50000 418.400000
1672 13631 7576 1 109.50000 418.400000
1672 13631 7577 1 109.50000 418.400000
4225 13631 7576 1 109.50000 418.400000
4225 13631 7577 1 109.50000 418.400000
7576 13631 7577 1 109.50000 418.400000
805 13632 1374 1 109.50000 418.400000
805 13632 5787 1 109.50000 418.400000
805 13632 7578 1 109.50000 418.400000
1374 13632 5787 1 109.50000 418.400000
1374 13632 7578 1 109.50000 418.400000
5787 13632 7578 1 109.50000 418.400000
5646 13633 7579 1 109.50000 418.400000
5646 13633 7580 1 109.50000 418.400000
5646 13633 7581 1 109.50000 418.400000
7579 13633 7580 1 109.50000 418.400000
7579 13633 7581 1 109.50000 418.400000
7580 13633 7581 1 109.50000 418.400000
1404 13634 5350 1 109.50000 418.400000
1404 13634 7135 1 109.50000 418.400000
1404 13634 7582 1 109.50000 418.400000
5350 13634 7135 1 109.50000 418.400000
5350 13634 7582 1 109.50000 418.400000
7135 13634 7582 1 109.50000 418.400000
2089 13635 3391 1 109.50000 418.400000
2089 13635 6668 1 109.50000 418.400000
2089 13635 7583 1 109.50000 418.400000
3391 13635 6668 1 109.50000 418.400000
3391 13635 7583 1 109.50000 418.400000
6668 13635 7583 1 109.50000 418.400000
2368 13636 5086 1 109.50000 418.400000
2368 13636 7584 1 109.50000 418.400000
2368 13636 7585 1 109.50000 418.400000
5086 13636 7584 1 109.50000 418.400000
5086 13636 7585 1 109.50000 418.400000
7584 13636 7585 1 109.50000 418.400000
1422 13637 7189 1 109.50000 418.400000
1422 13637 7586 1 109.50000 418.400000
1422 13637 7587 1 109.50000 418.400000
7189 13637 7586 1 109.50000 418.400000
7189 13637 7587 1 109.50000 418.400000
7586 13637 7587 1 109.50000 418.400000
7351 13638 7588 1 109.50000 418.400000
7351 13638 7589 1 109.50000 418.400000
7351 13638 7590 1 109.50000 418.400000
7588 13638 7589 1 109.50000 418.400000
7588 13638 7590 1 109.50000 418.400000
7589 13638 7590 1 109.50000 418.400000
4752 13639 7591 1 109.50000 418.400000
4752 13639 7592 1 109.50000 418.400000
4752 13639 7593 1 109.50000 418.400000
7591 13639 7592 1 109.50000 418.400000
7591 13639 7593 1 109.50000 418.400000
7592 13639 7593 1 109.50000 418.400000
5621 13640 7594 1 109.50000 418.400000
5621 13640 7595 1 109.50000 418.400000
5621 13640 7596 1 109.50000 418.400000
7594 13640 7595 1 109.50000 418.400000
7594 13640 7596 1 109.50000 418.400000
7595 13640 7596 1 109.50000 418.400000
952 13641 2136 1 109.50000 418.400000
952 13641 7597 1 109.50000 418.400000
952 13641 7598 1 109.50000 418.400000
2136 13641 7597 1 109.50000 418.400000
2136 13641 7598 1 109.50000 418.400000
7597 13641 7598 1 109.50000 418.400000
6033 13642 6651 1 109.50000 418.400000
6033 13642 7599 1 109.50000 418.400000
6033 13642 7600 1 109.50000 418.400000
6651 13642 7599 1 109.50000 418.400000
6651 13642 7600 1 109.50000 418.400000
7599 13642 7600 1 109.50000 418.400000
189 13643 5291 1 109.50000 418.400000
189 13643 7601 1 109.50000 418.400000
189 13643 7602 1 109.50000 418.400000
5291 13643 7601 1 109.50000 418.400000
5291 13643 7602 1 109.50000 418.400000
7601 13643 7602 1 109.50000 418.400000
6164 13644 7604 1 109.50000 418.400000
6164 13644 7605 1 109.50000 418.400000
6164 13644 7606 1 109.50000 418.400000
7604 13644 7605 1 109.50000 418.400000
7604 13644 7606 1 109.50000 418.400000
7605 13644 7606 1 109.50000 418.400000
2862 13645 3173 1 109.50000 418.400000
2862 13645 4751 1 109.50000 418.400000
2862 13645 7607 1 109.50000 418.400000
3173 13645 4751 1 109.50000 418.400000
3173 13645 7607 1 109.50000 418.400000
4751 13645 7607 1 109.50000 418.400000
2739 13646 2933 1 109.50000 418.400000
2739 13646 7608 1 109.50000 418.400000
2739 13646 7609 1 109.50000 418.400000
2933 13646 7608 1 109.50000 418.400000
2933 13646 7609 1 109.50000 418.400000
7608 13646 7609 1 109.50000 418.400000
4005 13647 5367 1 109.50000 418.400000
4005 13647 7601 1 109.50000 418.400000
4005 13647 7610 1 109.50000 418.400000
5367 13647 7601 1 109.50000 418.400000
5367 13647 7610 1 109.50000 418.400000
7601 13647 7610 1 109.50000 418.400000
2875 13648 3329 1 109.50000 418.400000
2875 13648 3804 1 109.50000 418.400000
2875 13648 7611 1 109.50000 418.400000
3329 13648 3804 1 109.50000 418.400000
3329 13648 7611 1 109.50000 418.400000
3804 13648 7611 1 109.50000 418.400000
7613 13649 7614 1 109.50000 418.400000
7613 13649 10414 1 109.50000 418.400000
7613 13649 10513 1 109.50000 418.400000
7614 13649 10414 1 109.50000 418.400000
7614 13649 10513 1 109.50000 418.400000
10414 13649 10513 1 109.50000 418.400000
2093 13650 7615 1 109.50000 418.400000
2093 13650 7616 1 109.50000 418.400000
2093 13650 7617 1 109.50000 418.400000
7615 13650 7616 1 109.50000 418.400000
7615 13650 7617 1 109.50000 418.400000
7616 13650 7617 1 109.50000 418.400000
2726 13651 3699 1 109.50000 418.400000
2726 13651 6755 1 109.50000 418.400000
2726 13651 6943 1 109.50000 418.400000
3699 13651 6755 1 109.50000 418.400000
3699 13651 6943 1 109.50000 418.400000
6755 13651 6943 1 109.50000 418.400000
1401 13652 7618 1 109.50000 418.400000
1401 13652 7619 1 109.50000 418.400000
1401 13652 7620 1 109.50000 418.400000
7618 13652 7619 1 109.50000 418.400000
7618 13652 7620 1 109.50000 418.400000
7619 13652 7620 1 109.50000 418.400000
3446 13653 7621 1 109.50000 418.400000
3446 13653 7622 1 109.50000 418.400000
3446 13653 7623 1 109.50000 418.400000
7621 13653 7622 1 109.50000 418.400000
7621 13653 7623 1 109.50000 418.400000
7622 13653 7623 1 109.50000 418.400000
159 13654 7629 1 109.50000 418.400000
159 13654 7630 1 109.50000 418.400000
159 13654 7631 1 109.50000 418.400000
7629 13654 7630 1 109.50000 418.400000
7629 13654 7631 1 109.50000 418.400000
7630 13654 7631 1 109.50000 418.400000
7632 13655 7633 1 109.50000 418.400000
7632 13655 7634 1 109.50000 418.400000
7632 13655 7635 1 109.50000 418.400000
7633 13655 7634 1 109.50000 418.400000
7633 13655 7635 1 109.50000 418.400000
7634 13655 7635 1 109.50000 418.400000
5644 13656 7637 1 109.50000 418.400000
5644 13656 7638 1 109.50000 418.400000
5644 13656 7639 1 109.50000 418.400000
7637 13656 7638 1 109.50000 418.400000
7637 13656 7639 1 109.50000 418.400000
7638 13656 7639 1 109.50000 418.400000
6338 13657 7398 1 109.50000 418.400000
6338 13657 7640 1 109.50000 418.400000
6338 13657 7641 1 109.50000 418.400000
7398 13657 7640 1 109.50000 418.400000
7398 13657 7641 1 109.50000 418.400000
7640 13657 7641 1 109.50000 418.400000
5656 13658 5679 1 109.50000 418.400000
5656 13658 7642 1 109.50000 418.400000
5656 13658 7643 1 109.50000 418.400000
5679 13658 7642 1 109.50000 418.400000
5679 13658 7643 1 109.50000 418.400000
7642 13658 7643 1 109.50000 418.400000
6194 13659 7645 1 109.50000 418.400000
6194 13659 7646 1 109.50000 418.400000
6194 13659 10872 1 109.50000 418.400000
7645 13659 7646 1 109.50000 418.400000
7645 13659 10872 1 109.50000 418.400000
7646 13659 10872 1 109.50000 418.400000
1499 13660 3858 1 109.50000 418.400000
1499 13660 7647 1 109.50000 418.400000
1499 13660 7648 1 109.50000 418.400000
3858 13660 7647 1 109.50000 418.400000
3858 13660 7648 1 109.50000 418.400000
7647 13660 7648 1 109.50000 418.400000
1368 13661 4762 1 109.50000 418.400000
1368 13661 7649 1 109.50000 418.400000
1368 13661 7650 1 109.50000 418.400000
4762 13661 7649 1 109.50000 418.400000
4762 13661 7650 1 109.50000 418.400000
7649 13661 7650 1 109.50000 418.400000
5242 13662 7651 1 109.50000 418.400000
5242 13662 7652 1 109.50000 418.400000
5242 13662 7653 1 109.50000 418.400000
7651 13662 7652 1 109.50000 418.400000
7651 13662 7653 1 109.50000 418.400000
7652 13662 7653 1 109.50000 418.400000
353 13663 2357 1 109.50000 418.400000
353 13663 2976 1 109.50000 418.400000
353 13663 7654 1 109.50000 418.400000
2357 13663 2976 1 109.50000 418.400000
2357 13663 7654 1 109.50000 418.400000
2976 13663 7654 1 109.50000 418.400000
141 13664 693 1 109.50000 418.400000
141 13664 5601 1 109.50000 418.400000
141 13664 7656 1 109.50000 418.400000
693 13664 5601 1 109.50000 418.400000
693 13664 7656 1 109.50000 418.400000
5601 13664 7656 1 109.50000 418.400000
167 13665 4231 1 109.50000 418.400000
167 13665 4658 1 109.50000 418.400000
167 13665 7657 1 109.50000 418.400000
4231 13665 4658 1 109.50000 418.400000
4231 13665 7657 1 109.50000 418.400000
4658 13665 7657 1 109.50000 418.400000
3311 13666 3533 1 109.50000 418.400000
3311 13666 7659 1 109.50000 418.400000
3311 13666 7660 1 109.50000 418.400000
3533 13666 7659 1 109.50000 418.400000
3533 13666 7660 1 109.50000 418.400000
7659 13666 7660 1 109.50000 418.400000
5261 13667 7664 1 109.50000 418.400000
5261 13667 11280 1 109.50000 418.400000
5261 13667 11295 1 109.50000 418.400000
7664 13667 11280 1 109.50000 418.400000
7664 13667 11295 1 109.50000 418.400000
11280 13667 11295 1 109.50000 418.400000
2662 13668 5047 1 109.50000 418.400000
2662 13668 5115 1 109.50000 418.400000
2662 13668 7212 1 109.50000 418.400000
5047 13668 5115 1 109.50000 418.400000
5047 13668 7212 1 109.50000 418.400000
5115 13668 7212 1 109.50000 418.400000
1812 13669 4012 1 109.50000 418.400000
1812 13669 5247 1 109.50000 418.400000
1812 13669 7667 1 109.50000 418.400000
4012 13669 5247 1 109.50000 418.400000
4012 13669 7667 1 109.50000 418.400000
5247 13669 7667 1 109.50000 418.400000
495 13670 497 1 109.50000 418.400000
495 13670 6622 1 109.50000 418.400000
495 13670 7668 1 109.50000 418.400000
497 13670 6622 1 109.50000 418.400000
497 13670 7668 1 109.50000 418.400000
6622 13670 7668 1 109.50000 418.400000
5962 13671 5976 1 109.50000 418.400000
5962 13671 7671 1 109.50000 418.400000
5962 13671 9979 1 109.50000 418.400000
5976 13671 7671 1 109.50000 418.400000
5976 13671 9979 1 109.50000 418.400000
7671 13671 9979 1 109.50000 418.400000
3766 13672 4059 1 109.50000 418.400000
3766 13672 5711 1 109.50000 418.400000
3766 13672 7673 1 109.50000 418.400000
4059 13672 5711 1 109.50000 418.400000
4059 13672 7673 1 109.50000 418.400000
5711 13672 7673 1 109.50000 418.400000
5028 13673 5029 1 109.50000 418.400000
5028 13673 6323 1 109.50000 418.400000
5028 13673 7674 1 109.50000 418.400000
5029 13673 6323 1 109.50000 418.400000
5029 13673 7674 1 109.50000 418.400000
6323 13673 7674 1 109.50000 418.400000
684 13674 7675 1 109.50000 418.400000
684 13674 7676 1 109.50000 418.400000
684 13674 7677 1 109.50000 418.400000
7675 13674 7676 1 109.50000 418.400000
7675 13674 7677 1 109.50000 418.400000
7676 13674 7677 1 109.50000 418.400000
697 13675 7678 1 109.50000 418.400000
697 13675 7679 1 109.50000 418.400000
697 13675 7680 1 109.50000 418.400000
7678 13675 7679 1 109.50000 418.400000
7678 13675 7680 1 109.50000 418.400000
7679 13675 7680 1 109.50000 418.400000
725 13676 5429 1 109.50000 418.400000
725 13676 7681 1 109.50000 418.400000
725 13676 7682 1 109.50000 418.400000
5429 13676 7681 1 109.50000 418.400000
5429 13676 7682 1 109.50000 418.400000
7681 13676 7682 1 109.50000 418.400000
1550 13677 7683 1 109.50000 418.400000
1550 13677 7684 1 109.50000 418.400000
1550 13677 7685 1 109.50000 418.400000
7683 13677 7684 1 109.50000 418.400000
7683 13677 7685 1 109.50000 418.400000
7684 13677 7685 1 109.50000 418.400000
3634 13678 5303 1 109.50000 418.400000
3634 13678 5798 1 109.50000 418.400000
3634 13678 6580 1 109.50000 418.400000
5303 13678 5798 1 109.50000 418.400000
5303 13678 6580 1 109.50000 418.400000
5798 13678 6580 1 109.50000 418.400000
2858 13679 2861 1 109.50000 418.400000
2858 13679 7689 1 109.50000 418.400000
2858 13679 7690 1 109.50000 418.400000
2861 13679 7689 1 109.50000 418.400000
2861 13679 7690 1 109.50000 418.400000
7689 13679 7690 1 109.50000 418.400000
6215 13680 6696 1 109.50000 418.400000
6215 13680 7691 1 109.50000 418.400000
6215 13680 7692 1 109.50000 418.400000
6696 13680 7691 1 109.50000 418.400000
6696 13680 7692 1 109.50000 418.400000
7691 13680 7692 1 109.50000 418.400000
7694 13681 7695 1 109.50000 418.400000
7694 13681 7696 1 109.50000 418.400000
7694 13681 8801 1 109.50000 418.400000
7695 13681 7696 1 109.50000 418.400000
7695 13681 8801 1 109.50000 418.400000
7696 13681 8801 1 109.50000 418.400000
2966 13682 4196 1 109.50000 418.400000
2966 13682 7697 1 109.50000 418.400000
2966 13682 7698 1 109.50000 418.400000
4196 13682 7697 1 109.50000 418.400000
4196 13682 7698 1 109.50000 418.400000
7697 13682 7698 1 109.50000 418.400000
3261 13683 3618 1 109.50000 418.400000
3261 13683 7700 1 109.50000 418.400000
3261 13683 7701 1 109.50000 418.400000
3618 13683 7700 1 109.50000 418.400000
3618 13683 7701 1 109.50000 418.400000
7700 13683 7701 1 109.50000 418.400000
5199 13684 7479 1 109.50000 418.400000
5199 13684 7702 1 109.50000 418.400000
5199 13684 7703 1 109.50000 418.400000
7479 13684 7702 1 109.50000 418.400000
7479 13684 7703 1 109.50000 418.400000
7702 13684 7703 1 109.50000 418.400000
3097 13685 7054 1 109.50000 418.400000
3097 13685 7704 1 109.50000 418.400000
3097 13685 7705 1 109.50000 418.400000
7054 13685 7704 1 109.50000 418.400000
7054 13685 7705 1 109.50000 418.400000
7704 13685 7705 1 109.50000 418.400000
5575 13686 7491 1 109.50000 418.400000
5575 13686 7706 1 109.50000 418.400000
5575 13686 7707 1 109.50000 418.400000
7491 13686 7706 1 109.50000 418.400000
7491 13686 7707 1 109.50000 418.400000
7706 13686 7707 1 109.50000 418.400000
6443 13687 7708 1 109.50000 418.400000
6443 13687 7709 1 109.50000 418.400000
6443 13687 7710 1 109.50000 418.400000
7708 13687 7709 1 109.50000 418.400000
7708 13687 7710 1 109.50000 418.400000
7709 13687 7710 1 109.50000 418.400000
2772 13688 2773 1 109.50000 418.400000
2772 13688 7713 1 109.50000 418.400000
2772 13688 7714 1 109.50000 418.400000
2773 13688 7713 1 109.50000 418.400000
2773 13688 7714 1 109.50000 418.400000
7713 13688 7714 1 109.50000 418.400000
3008 13689 7715 1 109.50000 418.400000
3008 13689 7716 1 109.50000 418.400000
3008 13689 7717 1 109.50000 418.400000
7715 13689 7716 1 109.50000 418.400000
7715 13689 7717 1 109.50000 418.400000
7716 13689 7717 1 109.50000 418.400000
5712 13690 7718 1 109.50000 418.400000
5712 13690 7719 1 109.50000 418.400000
5712 13690 7720 1 109.50000 418.400000
7718 13690 7719 1 109.50000 418.400000
7718 13690 7720 1 109.50000 418.400000
7719 13690 7720 1 109.50000 418.400000
1836 13691 3065 1 109.50000 418.400000
1836 13691 7256 1 109.50000 418.400000
1836 13691 7721 1 109.50000 418.400000
3065 13691 7256 1 109.50000 418.400000
3065 13691 7721 1 109.50000 418.400000
7256 13691 7721 1 109.50000 418.400000
7722 13692 7723 1 109.50000 418.400000
7722 13692 7724 1 109.50000 418.400000
7722 13692 7725 1 109.50000 418.400000
7723 13692 7724 1 109.50000 418.400000
7723 13692 7725 1 109.50000 418.400000
7724 13692 7725 1 109.50000 418.400000
4362 13693 7726 1 109.50000 418.400000
4362 13693 7727 1 109.50000 418.400000
4362 13693 7728 1 109.50000 418.400000
7726 13693 7727 1 109.50000 418.400000
7726 13693 7728 1 109.50000 418.400000
7727 13693 7728 1 109.50000 418.400000
6028 13694 6051 1 109.50000 418.400000
6028 13694 7729 1 109.50000 418.400000
6028 13694 7730 1 109.50000 418.400000
6051 13694 7729 1 109.50000 418.400000
6051 13694 7730 1 109.50000 418.400000
7729 13694 7730 1 109.50000 418.400000
1437 13695 4166 1 109.50000 418.400000
1437 13695 6888 1 109.50000 418.400000
1437 13695 7731 1 109.50000 418.400000
4166 13695 6888 1 109.50000 418.400000
4166 13695 7731 1 109.50000 418.400000
6888 13695 7731 1 109.50000 418.400000
931 13696 7735 1 109.50000 418.400000
931 13696 7736 1 109.50000 418.400000
931 13696 7737 1 109.50000 418.400000
7735 13696 7736 1 109.50000 418.400000
7735 13696 7737 1 109.50000 418.400000
7736 13696 7737 1 109.50000 418.400000
6963 13697 6964 1 109.50000 418.400000
6963 13697 7738 1 109.50000 418.400000
6963 13697 7740 1 109.50000 418.400000
6964 13697 7738 1 109.50000 418.400000
6964 13697 7740 1 109.50000 418.400000
7738 13697 7740 1 109.50000 418.400000
7741 13698 7742 1 109.50000 418.400000
7741 13698 7743 1 109.50000 418.400000
7741 13698 7744 1 109.50000 418.400000
7742 13698 7743 1 109.50000 418.400000
7742 13698 7744 1 109.50000 418.400000
7743 13698 7744 1 109.50000 418.400000
1546 13699 1628 1 109.50000 418.400000
1546 13699 5328 1 109.50000 418.400000
1546 13699 7745 1 109.50000 418.400000
1628 13699 5328 1 109.50000 418.400000
1628 13699 7745 1 109.50000 418.400000
5328 13699 7745 1 109.50000 418.400000
7746 13700 7747 1 109.50000 418.400000
7746 13700 7748 1 109.50000 418.400000
7746 13700 7749 1 109.50000 418.400000
7747 13700 7748 1 109.50000 418.400000
7747 13700 7749 1 109.50000 418.400000
7748 13700 7749 1 109.50000 418.400000
131 13701 4197 1 109.50000 418.400000
131 13701 4376 1 109.50000 418.400000
131 13701 5918 1 109.50000 418.400000
4197 13701 4376 1 109.50000 418.400000
4197 13701 5918 1 109.50000 418.400000
4376 13701 5918 1 109.50000 418.400000
3403 13702 6023 1 109.50000 418.400000
3403 13702 7750 1 109.50000 418.400000
3403 13702 7751 1 109.50000 418.400000
6023 13702 7750 1 109.50000 418.400000
6023 13702 7751 1 109.50000 418.400000
7750 13702 7751 1 109.50000 418.400000
1952 13703 7752 1 109.50000 418.400000
1952 13703 7753 1 109.50000 418.400000
1952 13703 7754 1 109.50000 418.400000
7752 13703 7753 1 109.50000 418.400000
7752 13703 7754 1 109.50000 418.400000
7753 13703 7754 1 109.50000 418.400000
3698 13704 7755 1 109.50000 418.400000
3698 13704 7756 1 109.50000 418.400000
3698 13704 7757 1 109.50000 418.400000
7755 13704 7756 1 109.50000 418.400000
7755 13704 7757 1 109.50000 418.400000
7756 13704 7757 1 109.50000 418.400000
1507 13705 4319 1 109.50000 418.400000
1507 13705 4320 1 109.50000 418.400000
1507 13705 7758 1 109.50000 418.400000
4319 13705 4320 1 109.50000 418.400000
4319 13705 7758 1 109.50000 418.400000
4320 13705 7758 1 109.50000 418.400000
5010 13706 5011 1 109.50000 418.400000
5010 13706 6789 1 109.50000 418.400000
5010 13706 7760 1 109.50000 418.400000
5011 13706 6789 1 109.50000 418.400000
5011 13706 7760 1 109.50000 418.400000
6789 13706 7760 1 109.50000 418.400000
657 13707 1619 1 109.50000 418.400000
657 13707 1620 1 109.50000 418.400000
657 13707 4846 1 109.50000 418.400000
1619 13707 1620 1 109.50000 418.400000
1619 13707 4846 1 109.50000 418.400000
1620 13707 4846 1 109.50000 418.400000
4933 13708 7762 1 109.50000 418.400000
4933 13708 7764 1 109.50000 418.400000
4933 13708 8150 1 109.50000 418.400000
7762 13708 7764 1 109.50000 418.400000
7762 13708 8150 1 109.50000 418.400000
7764 13708 8150 1 109.50000 418.400000
1609 13709 1612 1 109.50000 418.400000
1609 13709 7766 1 109.50000 418.400000
1609 13709 7767 1 109.50000 418.400000
1612 13709 7766 1 109.50000 418.400000
1612 13709 7767 1 109.50000 418.400000
7766 13709 7767 1 109.50000 418.400000
1570 13710 3969 1 109.50000 418.400000
1570 13710 7367 1 109.50000 418.400000
1570 13710 7768 1 109.50000 418.400000
3969 13710 7367 1 109.50000 418.400000
3969 13710 7768 1 109.50000 418.400000
7367 13710 7768 1 109.50000 418.400000
4592 13711 7771 1 109.50000 418.400000
4592 13711 7772 1 109.50000 418.400000
4592 13711 7773 1 109.50000 418.400000
7771 13711 7772 1 109.50000 418.400000
7771 13711 7773 1 109.50000 418.400000
7772 13711 7773 1 109.50000 418.400000
1066 13712 6957 1 109.50000 418.400000
1066 13712 7775 1 109.50000 418.400000
1066 13712 7776 1 109.50000 418.400000
6957 13712 7775 1 109.50000 418.400000
6957 13712 7776 1 109.50000 418.400000
7775 13712 7776 1 109.50000 418.400000
3953 13713 4260 1 109.50000 418.400000
3953 13713 5193 1 109.50000 418.400000
3953 13713 7777 1 109.50000 418.400000
4260 13713 5193 1 109.50000 418.400000
4260 13713 7777 1 109.50000 418.400000
5193 13713 7777 1 109.50000 418.400000
2267 13714 6592 1 109.50000 418.400000
2267 13714 7778 1 109.50000 418.400000
2267 13714 7779 1 109.50000 418.400000
6592 13714 7778 1 109.50000 418.400000
6592 13714 7779 1 109.50000 418.400000
7778 13714 7779 1 109.50000 418.400000
7326 13715 7328 1 109.50000 418.400000
7326 13715 7780 1 109.50000 418.400000
7326 13715 7782 1 109.50000 418.400000
7328 13715 7780 1 109.50000 418.400000
7328 13715 7782 1 109.50000 418.400000
7780 13715 7782 1 109.50000 418.400000
7763 13716 7783 1 109.50000 418.400000
7763 13716 7785 1 109.50000 418.400000
7763 13716 11176 1 109.50000 418.400000
7783 13716 7785 1 109.50000 418.400000
7783 13716 11176 1 109.50000 418.400000
7785 13716 11176 1 109.50000 418.400000
2243 13717 7169 1 109.50000 418.400000
2243 13717 7786 1 109.50000 418.400000
2243 13717 7787 1 109.50000 418.400000
7169 13717 7786 1 109.50000 418.400000
7169 13717 7787 1 109.50000 418.400000
7786 13717 7787 1 109.50000 418.400000
7492 13718 7788 1 109.50000 418.400000
7492 13718 7789 1 109.50000 418.400000
7492 13718 7790 1 109.50000 418.400000
7788 13718 7789 1 109.50000 418.400000
7788 13718 7790 1 109.50000 418.400000
7789 13718 7790 1 109.50000 418.400000
5518 13719 6024 1 109.50000 418.400000
5518 13719 6652 1 109.50000 418.400000
5518 13719 7791 1 109.50000 418.400000
6024 13719 6652 1 109.50000 418.400000
6024 13719 7791 1 109.50000 418.400000
6652 13719 7791 1 109.50000 418.400000
4797 13720 6583 1 109.50000 418.400000
4797 13720 7453 1 109.50000 418.400000
4797 13720 7792 1 109.50000 418.400000
6583 13720 7453 1 109.50000 418.400000
6583 13720 7792 1 109.50000 418.400000
7453 13720 7792 1 109.50000 418.400000
6986 13721 7793 1 109.50000 418.400000
6986 13721 7794 1 109.50000 418.400000
6986 13721 7795 1 109.50000 418.400000
7793 13721 7794 1 109.50000 418.400000
7793 13721 7795 1 109.50000 418.400000
7794 13721 7795 1 109.50000 418.400000
4926 13722 5934 1 109.50000 418.400000
4926 13722 7796 1 109.50000 418.400000
4926 13722 7797 1 109.50000 418.400000
5934 13722 7796 1 109.50000 418.400000
5934 13722 7797 1 109.50000 418.400000
7796 13722 7797 1 109.50000 418.400000
1590 13723 4048 1 109.50000 418.400000
1590 13723 6551 1 109.50000 418.400000
1590 13723 6552 1 109.50000 418.400000
4048 13723 6551 1 109.50000 418.400000
4048 13723 6552 1 109.50000 418.400000
6551 13723 6552 1 109.50000 418.400000
5881 13724 7186 1 109.50000 418.400000
5881 13724 7798 1 109.50000 418.400000
5881 13724 7799 1 109.50000 418.400000
7186 13724 7798 1 109.50000 418.400000
7186 13724 7799 1 109.50000 418.400000
7798 13724 7799 1 109.50000 418.400000
2315 13725 6753 1 109.50000 418.400000
2315 13725 7801 1 109.50000 418.400000
2315 13725 7802 1 109.50000 418.400000
6753 13725 7801 1 109.50000 418.400000
6753 13725 7802 1 109.50000 418.400000
7801 13725 7802 1 109.50000 418.400000
4883 13726 5535 1 109.50000 418.400000
4883 13726 7178 1 109.50000 418.400000
4883 13726 7803 1 109.50000 418.400000
5535 13726 7178 1 109.50000 418.400000
5535 13726 7803 1 109.50000 418.400000
7178 13726 7803 1 109.50000 418.400000
1268 13727 1335 1 109.50000 418.400000
1268 13727 4324 1 109.50000 418.400000
1268 13727 7804 1 109.50000 418.400000
1335 13727 4324 1 109.50000 418.400000
1335 13727 7804 1 109.50000 418.400000
4324 13727 7804 1 109.50000 418.400000
5121 13728 5486 1 109.50000 418.400000
5121 13728 5774 1 109.50000 418.400000
5121 13728 7807 1 109.50000 418.400000
5486 13728 5774 1 109.50000 418.400000
5486 13728 7807 1 109.50000 418.400000
5774 13728 7807 1 109.50000 418.400000
7808 13729 7809 1 109.50000 418.400000
7808 13729 7810 1 109.50000 418.400000
7808 13729 7811 1 109.50000 418.400000
7809 13729 7810 1 109.50000 418.400000
7809 13729 7811 1 109.50000 418.400000
7810 13729 7811 1 109.50000 418.400000
93 13730 4873 1 109.50000 418.400000
93 13730 7814 1 109.50000 418.400000
93 13730 7815 1 109.50000 418.400000
4873 13730 7814 1 109.50000 418.400000
4873 13730 7815 1 109.50000 418.400000
7814 13730 7815 1 109.50000 418.400000
899 13731 933 1 109.50000 418.400000
899 13731 7816 1 109.50000 418.400000
899 13731 7817 1 109.50000 418.400000
933 13731 7816 1 109.50000 418.400000
933 13731 7817 1 109.50000 418.400000
7816 13731 7817 1 109.50000 418.400000
3629 13732 3630 1 109.50000 418.400000
3629 13732 6010 1 109.50000 418.400000
3629 13732 6662 1 109.50000 418.400000
3630 13732 6010 1 109.50000 418.400000
3630 13732 6662 1 109.50000 418.400000
6010 13732 6662 1 109.50000 418.400000
3554 13733 5002 1 109.50000 418.400000
3554 13733 7821 1 109.50000 418.400000
3554 13733 7822 1 109.50000 418.400000
5002 13733 7821 1 109.50000 418.400000
5002 13733 7822 1 109.50000 418.400000
7821 13733 7822 1 109.50000 418.400000
7565 13734 7823 1 109.50000 418.400000
7565 13734 7824 1 109.50000 418.400000
7565 13734 7825 1 109.50000 418.400000
7823 13734 7824 1 109.50000 418.400000
7823 13734 7825 1 109.50000 418.400000
7824 13734 7825 1 109.50000 418.400000
1552 13735 4783 1 109.50000 418.400000
1552 13735 7103 1 109.50000 418.400000
1552 13735 7590 1 109.50000 418.400000
4783 13735 7103 1 109.50000 418.400000
4783 13735 7590 1 109.50000 418.400000
7103 13735 7590 1 109.50000 418.400000
5780 13736 6084 1 109.50000 418.400000
5780 13736 7826 1 109.50000 418.400000
5780 13736 7827 1 109.50000 418.400000
6084 13736 7826 1 109.50000 418.400000
6084 13736 7827 1 109.50000 418.400000
7826 13736 7827 1 109.50000 418.400000
1913 13737 5958 1 109.50000 418.400000
1913 13737 7828 1 109.50000 418.400000
1913 13737 7829 1 109.50000 418.400000
5958 13737 7828 1 109.50000 418.400000
5958 13737 7829 1 109.50000 418.400000
7828 13737 7829 1 109.50000 418.400000
3943 13738 7386 1 109.50000 418.400000
3943 13738 7830 1 109.50000 418.400000
3943 13738 7831 1 109.50000 418.400000
7386 13738 7830 1 109.50000 418.400000
7386 13738 7831 1 109.50000 418.400000
7830 13738 7831 1 109.50000 418.400000
187 13739 5144 1 109.50000 418.400000
187 13739 7650 1 109.50000 418.400000
187 13739 7833 1 109.50000 418.400000
5144 13739 7650 1 109.50000 418.400000
5144 13739 7833 1 109.50000 418.400000
7650 13739 7833 1 109.50000 418.400000
1663 13740 7834 1 109.50000 418.400000
1663 13740 7835 1 109.50000 418.400000
1663 13740 7836 1 109.50000 418.400000
7834 13740 7835 1 109.50000 418.400000
7834 13740 7836 1 109.50000 418.400000
7835 13740 7836 1 109.50000 418.400000
1276 13741 1995 1 109.50000 418.400000
1276 13741 7837 1 109.50000 418.400000
1276 13741 7838 1 109.50000 418.400000
1995 13741 7837 1 109.50000 418.400000
1995 13741 7838 1 109.50000 418.400000
7837 13741 7838 1 109.50000 418.400000
3817 13742 5383 1 109.50000 418.400000
3817 13742 7173 1 109.50000 418.400000
3817 13742 7839 1 109.50000 418.400000
5383 13742 7173 1 109.50000 418.400000
5383 13742 7839 1 109.50000 418.400000
7173 13742 7839 1 109.50000 418.400000
2224 13743 2377 1 109.50000 418.400000
2224 13743 7840 1 109.50000 418.400000
2224 13743 7841 1 109.50000 418.400000
2377 13743 7840 1 109.50000 418.400000
2377 13743 7841 1 109.50000 418.400000
7840 13743 7841 1 109.50000 418.400000
7843 13744 7844 1 109.50000 418.400000
7843 13744 7845 1 109.50000 418.400000
7843 13744 11253 1 109.50000 418.400000
7844 13744 7845 1 109.50000 418.400000
7844 13744 11253 1 109.50000 418.400000
7845 13744 11253 1 109.50000 418.400000
1117 13745 1510 1 109.50000 418.400000
1117 13745 7846 1 109.50000 418.400000
1117 13745 7847 1 109.50000 418.400000
1510 13745 7846 1 109.50000 418.400000
1510 13745 7847 1 109.50000 418.400000
7846 13745 7847 1 109.50000 418.400000
6537 13746 7847 1 109.50000 418.400000
6537 13746 7848 1 109.50000 418.400000
6537 13746 7849 1 109.50000 418.400000
7847 13746 7848 1 109.50000 418.400000
7847 13746 7849 1 109.50000 418.400000
7848 13746 7849 1 109.50000 418.400000
2304 13747 7850 1 109.50000 418.400000
2304 13747 7852 1 109.50000 418.400000
2304 13747 9974 1 109.50000 418.400000
7850 13747 7852 1 109.50000 418.400000
7850 13747 9974 1 109.50000 418.400000
7852 13747 9974 1 109.50000 418.400000
3962 13748 6311 1 109.50000 418.400000
3962 13748 6851 1 109.50000 418.400000
3962 13748 7853 1 109.50000 418.400000
6311 13748 6851 1 109.50000 418.400000
6311 13748 7853 1 109.50000 418.400000
6851 13748 7853 1 109.50000 418.400000
1874 13749 3984 1 109.50000 418.400000
1874 13749 7854 1 109.50000 418.400000
1874 13749 7855 1 109.50000 418.400000
3984 13749 7854 1 109.50000 418.400000
3984 13749 7855 1 109.50000 418.400000
7854 13749 7855 1 109.50000 418.400000
7162 13750 7856 1 109.50000 418.400000
7162 13750 7857 1 109.50000 418.400000
7162 13750 7858 1 109.50000 418.400000
7856 13750 7857 1 109.50000 418.400000
7856 13750 7858 1 109.50000 418.400000
7857 13750 7858 1 109.50000 418.400000
5416 13751 6547 1 109.50000 418.400000
5416 13751 7860 1 109.50000 418.400000
5416 13751 7861 1 109.50000 418.400000
6547 13751 7860 1 109.50000 418.400000
6547 13751 7861 1 109.50000 418.400000
7860 13751 7861 1 109.50000 418.400000
3191 13752 7862 1 109.50000 418.400000
3191 13752 7863 1 109.50000 418.400000
3191 13752 7864 1 109.50000 418.400000
7862 13752 7863 1 109.50000 418.400000
7862 13752 7864 1 109.50000 418.400000
7863 13752 7864 1 109.50000 418.400000
7865 13753 7866 1 109.50000 418.400000
7865 13753 7867 1 109.50000 418.400000
7865 13753 7868 1 109.50000 418.400000
7866 13753 7867 1 109.50000 418.400000
7866 13753 7868 1 109.50000 418.400000
7867 13753 7868 1 109.50000 418.400000
3344 13754 3561 1 109.50000 418.400000
3344 13754 5630 1 109.50000 418.400000
3344 13754 5871 1 109.50000 418.400000
3561 13754 5630 1 109.50000 418.400000
3561 13754 5871 1 109.50000 418.400000
5630 13754 5871 1 109.50000 418.400000
4483 13755 7201 1 109.50000 418.400000
4483 13755 7869 1 109.50000 418.400000
4483 13755 7870 1 109.50000 418.400000
7201 13755 7869 1 109.50000 418.400000
7201 13755 7870 1 109.50000 418.400000
7869 13755 7870 1 109.50000 418.400000
2576 13756 5052 1 109.50000 418.400000
2576 13756 7871 1 109.50000 418.400000
2576 13756 7872 1 109.50000 418.400000
5052 13756 7871 1 109.50000 418.400000
5052 13756 7872 1 109.50000 418.400000
7871 13756 7872 1 109.50000 418.400000
5604 13757 6277 1 109.50000 418.400000
5604 13757 7873 1 109.50000 418.400000
5604 13757 7874 1 109.50000 418.400000
6277 13757 7873 1 109.50000 418.400000
6277 13757 7874 1 109.50000 418.400000
7873 13757 7874 1 109.50000 418.400000
4213 13758 7875 1 109.50000 418.400000
4213 13758 7876 1 109.50000 418.400000
4213 13758 7877 1 109.50000 418.400000
7875 13758 7876 1 109.50000 418.400000
7875 13758 7877 1 109.50000 418.400000
7876 13758 7877 1 109.50000 418.400000
6121 13759 7878 1 109.50000 418.400000
6121 13759 7879 1 109.50000 418.400000
6121 13759 7880 1 109.50000 418.400000
7878 13759 7879 1 109.50000 418.400000
7878 13759 7880 1 109.50000 418.400000
7879 13759 7880 1 109.50000 418.400000
3938 13760 5903 1 109.50000 418.400000
3938 13760 7881 1 109.50000 418.400000
3938 13760 7882 1 109.50000 418.400000
5903 13760 7881 1 109.50000 418.400000
5903 13760 7882 1 109.50000 418.400000
7881 13760 7882 1 109.50000 418.400000
5210 13761 7883 1 109.50000 418.400000
5210 13761 7884 1 109.50000 418.400000
5210 13761 7885 1 109.50000 418.400000
7883 13761 7884 1 109.50000 418.400000
7883 13761 7885 1 109.50000 418.400000
7884 13761 7885 1 109.50000 418.400000
1765 13762 7886 1 109.50000 418.400000
1765 13762 7887 1 109.50000 418.400000
1765 13762 7888 1 109.50000 418.400000
7886 13762 7887 1 109.50000 418.400000
7886 13762 7888 1 109.50000 418.400000
7887 13762 7888 1 109.50000 418.400000
6003 13763 7889 1 109.50000 418.400000
6003 13763 7890 1 109.50000 418.400000
6003 13763 7891 1 109.50000 418.400000
7889 13763 7890 1 109.50000 418.400000
7889 13763 7891 1 109.50000 418.400000
7890 13763 7891 1 109.50000 418.400000
5335 13764 7892 1 109.50000 418.400000
5335 13764 7893 1 109.50000 418.400000
5335 13764 7894 1 109.50000 418.400000
7892 13764 7893 1 109.50000 418.400000
7892 13764 7894 1 109.50000 418.400000
7893 13764 7894 1 109.50000 418.400000
6750 13765 7895 1 109.50000 418.400000
6750 13765 7896 1 109.50000 418.400000
6750 13765 7897 1 109.50000 418.400000
7895 13765 7896 1 109.50000 418.400000
7895 13765 7897 1 109.50000 418.400000
7896 13765 7897 1 109.50000 418.400000
1185 13766 7898 1 109.50000 418.400000
1185 13766 7899 1 109.50000 418.400000
1185 13766 7900 1 109.50000 418.400000
7898 13766 7899 1 109.50000 418.400000
7898 13766 7900 1 109.50000 418.400000
7899 13766 7900 1 109.50000 418.400000
82 13767 2642 1 109.50000 418.400000
82 13767 5387 1 109.50000 418.400000
82 13767 7901 1 109.50000 418.400000
2642 13767 5387 1 109.50000 418.400000
2642 13767 7901 1 109.50000 418.400000
5387 13767 7901 1 109.50000 418.400000
16 13768 3166 1 109.50000 418.400000
16 13768 7902 1 109.50000 418.400000
16 13768 7903 1 109.50000 418.400000
3166 13768 7902 1 109.50000 418.400000
3166 13768 7903 1 109.50000 418.400000
7902 13768 7903 1 109.50000 418.400000
1604 13769 4907 1 109.50000 418.400000
1604 13769 7904 1 109.50000 418.400000
1604 13769 7905 1 109.50000 418.400000
4907 13769 7904 1 109.50000 418.400000
4907 13769 7905 1 109.50000 418.400000
7904 13769 7905 1 109.50000 418.400000
2332 13770 2906 1 109.50000 418.400000
2332 13770 7662 1 109.50000 418.400000
2332 13770 7844 1 109.50000 418.400000
2906 13770 7662 1 109.50000 418.400000
2906 13770 7844 1 109.50000 418.400000
7662 13770 7844 1 109.50000 418.400000
1457 13771 6788 1 109.50000 418.400000
1457 13771 7906 1 109.50000 418.400000
1457 13771 7907 1 109.50000 418.400000
6788 13771 7906 1 109.50000 418.400000
6788 13771 7907 1 109.50000 418.400000
7906 13771 7907 1 109.50000 418.400000
2299 13772 7136 1 109.50000 418.400000
2299 13772 7909 1 109.50000 418.400000
2299 13772 7910 1 109.50000 418.400000
7136 13772 7909 1 109.50000 418.400000
7136 13772 7910 1 109.50000 418.400000
7909 13772 7910 1 109.50000 418.400000
3260 13773 3510 1 109.50000 418.400000
3260 13773 7911 1 109.50000 418.400000
3260 13773 7912 1 109.50000 418.400000
3510 13773 7911 1 109.50000 418.400000
3510 13773 7912 1 109.50000 418.400000
7911 13773 7912 1 109.50000 418.400000
7855 13774 7913 1 109.50000 418.400000
7855 13774 7914 1 109.50000 418.400000
7855 13774 7915 1 109.50000 418.400000
7913 13774 7914 1 109.50000 418.400000
7913 13774 7915 1 109.50000 418.400000
7914 13774 7915 1 109.50000 418.400000
3098 13775 5528 1 109.50000 418.400000
3098 13775 7916 1 109.50000 418.400000
3098 13775 7917 1 109.50000 418.400000
5528 13775 7916 1 109.50000 418.400000
5528 13775 7917 1 109.50000 418.400000
7916 13775 7917 1 109.50000 418.400000
7426 13776 7918 1 109.50000 418.400000
7426 13776 7919 1 109.50000 418.400000
7426 13776 7920 1 109.50000 418.400000
7918 13776 7919 1 109.50000 418.400000
7918 13776 7920 1 109.50000 418.400000
7919 13776 7920 1 109.50000 418.400000
4280 13777 7547 1 109.50000 418.400000
4280 13777 7921 1 109.50000 418.400000
4280 13777 7922 1 109.50000 418.400000
7547 13777 7921 1 109.50000 418.400000
7547 13777 7922 1 109.50000 418.400000
7921 13777 7922 1 109.50000 418.400000
257 13778 7923 1 109.50000 418.400000
257 13778 7924 1 109.50000 418.400000
257 13778 7925 1 109.50000 418.400000
7923 13778 7924 1 109.50000 418.400000
7923 13778 7925 1 109.50000 418.400000
7924 13778 7925 1 109.50000 418.400000
1363 13779 2281 1 109.50000 418.400000
1363 13779 4705 1 109.50000 418.400000
1363 13779 7926 1 109.50000 418.400000
2281 13779 4705 1 109.50000 418.400000
2281 13779 7926 1 109.50000 418.400000
4705 13779 7926 1 109.50000 418.400000
2158 13780 4629 1 109.50000 418.400000
2158 13780 7927 1 109.50000 418.400000
2158 13780 7928 1 109.50000 418.400000
4629 13780 7927 1 109.50000 418.400000
4629 13780 7928 1 109.50000 418.400000
7927 13780 7928 1 109.50000 418.400000
625 13781 7929 1 109.50000 418.400000
625 13781 7930 1 109.50000 418.400000
625 13781 7931 1 109.50000 418.400000
7929 13781 7930 1 109.50000 418.400000
7929 13781 7931 1 109.50000 418.400000
7930 13781 7931 1 109.50000 418.400000
3298 13782 7934 1 109.50000 418.400000
3298 13782 7935 1 109.50000 418.400000
3298 13782 7936 1 109.50000 418.400000
7934 13782 7935 1 109.50000 418.400000
7934 13782 7936 1 109.50000 418.400000
7935 13782 7936 1 109.50000 418.400000
7894 13783 7937 1 109.50000 418.400000
7894 13783 7938 1 109.50000 418.400000
7894 13783 7939 1 109.50000 418.400000
7937 13783 7938 1 109.50000 418.400000
7937 13783 7939 1 109.50000 418.400000
7938 13783 7939 1 109.50000 418.400000
1194 13784 5094 1 109.50000 418.400000
1194 13784 7940 1 109.50000 418.400000
1194 13784 7941 1 109.50000 418.400000
5094 13784 7940 1 109.50000 418.400000
5094 13784 7941 1 109.50000 418.400000
7940 13784 7941 1 109.50000 418.400000
4634 13785 7516 1 109.50000 418.400000
4634 13785 7777 1 109.50000 418.400000
4634 13785 7942 1 109.50000 418.400000
7516 13785 7777 1 109.50000 418.400000
7516 13785 7942 1 109.50000 418.400000
7777 13785 7942 1 109.50000 418.400000
3511 13786 7239 1 109.50000 418.400000
3511 13786 7943 1 109.50000 418.400000
3511 13786 7944 1 109.50000 418.400000
7239 13786 7943 1 109.50000 418.400000
7239 13786 7944 1 109.50000 418.400000
7943 13786 7944 1 109.50000 418.400000
4708 13787 7946 1 109.50000 418.400000
4708 13787 7947 1 109.50000 418.400000
4708 13787 7948 1 109.50000 418.400000
7946 13787 7947 1 109.50000 418.400000
7946 13787 7948 1 109.50000 418.400000
7947 13787 7948 1 109.50000 418.400000
630 13788 2815 1 109.50000 418.400000
630 13788 2817 1 109.50000 418.400000
630 13788 7949 1 109.50000 418.400000
2815 13788 2817 1 109.50000 418.400000
2815 13788 7949 1 109.50000 418.400000
2817 13788 7949 1 109.50000 418.400000
5820 13789 6461 1 109.50000 418.400000
5820 13789 6611 1 109.50000 418.400000
5820 13789 7950 1 109.50000 418.400000
6461 13789 6611 1 109.50000 418.400000
6461 13789 7950 1 109.50000 418.400000
6611 13789 7950 1 109.50000 418.400000
6402 13790 7951 1 109.50000 418.400000
6402 13790 7952 1 109.50000 418.400000
6402 13790 7953 1 109.50000 418.400000
7951 13790 7952 1 109.50000 418.400000
7951 13790 7953 1 109.50000 418.400000
7952 13790 7953 1 109.50000 418.400000
3351 13791 5490 1 109.50000 418.400000
3351 13791 5593 1 109.50000 418.400000
3351 13791 7954 1 109.50000 418.400000
5490 13791 5593 1 109.50000 418.400000
5490 13791 7954 1 109.50000 418.400000
5593 13791 7954 1 109.50000 418.400000
2117 13792 2118 1 109.50000 418.400000
2117 13792 5311 1 109.50000 418.400000
2117 13792 7955 1 109.50000 418.400000
2118 13792 5311 1 109.50000 418.400000
2118 13792 7955 1 109.50000 418.400000
5311 13792 7955 1 109.50000 418.400000
5140 13793 7957 1 109.50000 418.400000
5140 13793 7958 1 109.50000 418.400000
5140 13793 7959 1 109.50000 418.400000
7957 13793 7958 1 109.50000 418.400000
7957 13793 7959 1 109.50000 418.400000
7958 13793 7959 1 109.50000 418.400000
2205 13794 4171 1 109.50000 418.400000
2205 13794 7960 1 109.50000 418.400000
2205 13794 7961 1 109.50000 418.400000
4171 13794 7960 1 109.50000 418.400000
4171 13794 7961 1 109.50000 418.400000
7960 13794 7961 1 109.50000 418.400000
71 13795 777 1 109.50000 418.400000
71 13795 778 1 109.50000 418.400000
71 13795 7962 1 109.50000 418.400000
777 13795 778 1 109.50000 418.400000
777 13795 7962 1 109.50000 418.400000
778 13795 7962 1 109.50000 418.400000
7963 13796 7964 1 109.50000 418.400000
7963 13796 7965 1 109.50000 418.400000
7963 13796 7966 1 109.50000 418.400000
7964 13796 7965 1 109.50000 418.400000
7964 13796 7966 1 109.50000 418.400000
7965 13796 7966 1 109.50000 418.400000
5369 13797 6800 1 109.50000 418.400000
5369 13797 7967 1 109.50000 418.400000
5369 13797 7968 1 109.50000 418.400000
6800 13797 7967 1 109.50000 418.400000
6800 13797 7968 1 109.50000 418.400000
7967 13797 7968 1 109.50000 418.400000
2713 13798 4084 1 109.50000 418.400000
2713 13798 4135 1 109.50000 418.400000
2713 13798 5120 1 109.50000 418.400000
4084 13798 4135 1 109.50000 418.400000
4084 13798 5120 1 109.50000 418.400000
4135 13798 5120 1 109.50000 418.400000
3165 13799 7969 1 109.50000 418.400000
3165 13799 7970 1 109.50000 418.400000
3165 13799 7971 1 109.50000 418.400000
7969 13799 7970 1 109.50000 418.400000
7969 13799 7971 1 109.50000 418.400000
7970 13799 7971 1 109.50000 418.400000
1673 13800 4295 1 109.50000 418.400000
1673 13800 7974 1 109.50000 418.400000
1673 13800 9837 1 109.50000 418.400000
4295 13800 7974 1 109.50000 418.400000
4295 13800 9837 1 109.50000 418.400000
7974 13800 9837 1 109.50000 418.400000
5023 13801 7208 1 109.50000 418.400000
5023 13801 7975 1 109.50000 418.400000
5023 13801 7976 1 109.50000 418.400000
7208 13801 7975 1 109.50000 418.400000
7208 13801 7976 1 109.50000 418.400000
7975 13801 7976 1 109.50000 418.400000
3202 13802 3666 1 109.50000 418.400000
3202 13802 7870 1 109.50000 418.400000
3202 13802 7977 1 109.50000 418.400000
3666 13802 7870 1 109.50000 418.400000
3666 13802 7977 1 109.50000 418.400000
7870 13802 7977 1 109.50000 418.400000
3595 13803 7978 1 109.50000 418.400000
3595 13803 7979 1 109.50000 418.400000
3595 13803 7980 1 109.50000 418.400000
7978 13803 7979 1 109.50000 418.400000
7978 13803 7980 1 109.50000 418.400000
7979 13803 7980 1 109.50000 418.400000
780 13804 1209 1 109.50000 418.400000
780 13804 6123 1 109.50000 418.400000
780 13804 7981 1 109.50000 418.400000
1209 13804 6123 1 109.50000 418.400000
1209 13804 7981 1 109.50000 418.400000
6123 13804 7981 1 109.50000 418.400000
297 13805 3682 1 109.50000 418.400000
297 13805 7982 1 109.50000 418.400000
297 13805 7983 1 109.50000 418.400000
3682 13805 7982 1 109.50000 418.400000
3682 13805 7983 1 109.50000 418.400000
7982 13805 7983 1 109.50000 418.400000
225 13806 7048 1 109.50000 418.400000
225 13806 7984 1 109.50000 418.400000
225 13806 7985 1 109.50000 418.400000
7048 13806 7984 1 109.50000 418.400000
7048 13806 7985 1 109.50000 418.400000
7984 13806 7985 1 109.50000 418.400000
6905 13807 7986 1 109.50000 418.400000
6905 13807 7987 1 109.50000 418.400000
6905 13807 7988 1 109.50000 418.400000
7986 13807 7987 1 109.50000 418.400000
7986 13807 7988 1 109.50000 418.400000
7987 13807 7988 1 109.50000 418.400000
1529 13808 7989 1 109.50000 418.400000
1529 13808 7990 1 109.50000 418.400000
1529 13808 7991 1 109.50000 418.400000
7989 13808 7990 1 109.50000 418.400000
7989 13808 7991 1 109.50000 418.400000
7990 13808 7991 1 109.50000 418.400000
27 13809 2877 1 109.50000 418.400000
27 13809 7992 1 109.50000 418.400000
27 13809 7993 1 109.50000 418.400000
2877 13809 7992 1 109.50000 418.400000
2877 13809 7993 1 109.50000 418.400000
7992 13809 7993 1 109.50000 418.400000
3655 13810 3657 1 109.50000 418.400000
3655 13810 5882 1 109.50000 418.400000
3655 13810 7994 1 109.50000 418.400000
3657 13810 5882 1 109.50000 418.400000
3657 13810 7994 1 109.50000 418.400000
5882 13810 7994 1 109.50000 418.400000
3252 13811 7995 1 109.50000 418.400000
3252 13811 7996 1 109.50000 418.400000
3252 13811 7997 1 109.50000 418.400000
7995 13811 7996 1 109.50000 418.400000
7995 13811 7997 1 109.50000 418.400000
7996 13811 7997 1 109.50000 418.400000
148 13812 7998 1 109.50000 418.400000
148 13812 7999 1 109.50000 418.400000
148 13812 8000 1 109.50000 418.400000
7998 13812 7999 1 109.50000 418.400000
7998 13812 8000 1 109.50000 418.400000
7999 13812 8000 1 109.50000 418.400000
1491 13813 4271 1 109.50000 418.400000
1491 13813 6243 1 109.50000 418.400000
1491 13813 7182 1 109.50000 418.400000
4271 13813 6243 1 109.50000 418.400000
4271 13813 7182 1 109.50000 418.400000
6243 13813 7182 1 109.50000 418.400000
4720 13814 8001 1 109.50000 418.400000
4720 13814 8002 1 109.50000 418.400000
4720 13814 8003 1 109.50000 418.400000
8001 13814 8002 1 109.50000 418.400000
8001 13814 8003 1 109.50000 418.400000
8002 13814 8003 1 109.50000 418.400000
8004 13815 8005 1 109.50000 418.400000
8004 13815 8006 1 109.50000 418.400000
8004 13815 8007 1 109.50000 418.400000
8005 13815 8006 1 109.50000 418.400000
8005 13815 8007 1 109.50000 418.400000
8006 13815 8007 1 109.50000 418.400000
1229 13816 7815 1 109.50000 418.400000
1229 13816 8008 1 109.50000 418.400000
1229 13816 8009 1 109.50000 418.400000
7815 13816 8008 1 109.50000 418.400000
7815 13816 8009 1 109.50000 418.400000
8008 13816 8009 1 109.50000 418.400000
3501 13817 5360 1 109.50000 418.400000
3501 13817 8010 1 109.50000 418.400000
3501 13817 8011 1 109.50000 418.400000
5360 13817 8010 1 109.50000 418.400000
5360 13817 8011 1 109.50000 418.400000
8010 13817 8011 1 109.50000 418.400000
4884 13818 5484 1 109.50000 418.400000
4884 13818 7514 1 109.50000 418.400000
4884 13818 8014 1 109.50000 418.400000
5484 13818 7514 1 109.50000 418.400000
5484 13818 8014 1 109.50000 418.400000
7514 13818 8014 1 109.50000 418.400000
8015 13819 8016 1 109.50000 418.400000
8015 13819 8017 1 109.50000 418.400000
8015 13819 8018 1 109.50000 418.400000
8016 13819 8017 1 109.50000 418.400000
8016 13819 8018 1 109.50000 418.400000
8017 13819 8018 1 109.50000 418.400000
8019 13820 8020 1 109.50000 418.400000
8019 13820 8021 1 109.50000 418.400000
8019 13820 8022 1 109.50000 418.400000
8020 13820 8021 1 109.50000 418.400000
8020 13820 8022 1 109.50000 418.400000
8021 13820 8022 1 109.50000 418.400000
2140 13821 3903 1 109.50000 418.400000
2140 13821 8023 1 109.50000 418.400000
2140 13821 8024 1 109.50000 418.400000
3903 13821 8023 1 109.50000 418.400000
3903 13821 8024 1 109.50000 418.400000
8023 13821 8024 1 109.50000 418.400000
2982 13822 8025 1 109.50000 418.400000
2982 13822 8026 1 109.50000 418.400000
2982 13822 8027 1 109.50000 418.400000
8025 13822 8026 1 109.50000 418.400000
8025 13822 8027 1 109.50000 418.400000
8026 13822 8027 1 109.50000 418.400000
3004 13823 5313 1 109.50000 418.400000
3004 13823 6683 1 109.50000 418.400000
3004 13823 8028 1 109.50000 418.400000
5313 13823 6683 1 109.50000 418.400000
5313 13823 8028 1 109.50000 418.400000
6683 13823 8028 1 109.50000 418.400000
8029 13824 8030 1 109.50000 418.400000
8029 13824 8031 1 109.50000 418.400000
8029 13824 8032 1 109.50000 418.400000
8030 13824 8031 1 109.50000 418.400000
8030 13824 8032 1 109.50000 418.400000
8031 13824 8032 1 109.50000 418.400000
6469 13825 8033 1 109.50000 418.400000
6469 13825 8034 1 109.50000 418.400000
6469 13825 8035 1 109.50000 418.400000
8033 13825 8034 1 109.50000 418.400000
8033 13825 8035 1 109.50000 418.400000
8034 13825 8035 1 109.50000 418.400000
4136 13826 8036 1 109.50000 418.400000
4136 13826 8037 1 109.50000 418.400000
4136 13826 8939 1 109.50000 418.400000
8036 13826 8037 1 109.50000 418.400000
8036 13826 8939 1 109.50000 418.400000
8037 13826 8939 1 109.50000 418.400000
4126 13827 6387 1 109.50000 418.400000
4126 13827 8038 1 109.50000 418.400000
4126 13827 8039 1 109.50000 418.400000
6387 13827 8038 1 109.50000 418.400000
6387 13827 8039 1 109.50000 418.400000
8038 13827 8039 1 109.50000 418.400000
5692 13828 7563 1 109.50000 418.400000
5692 13828 8040 1 109.50000 418.400000
5692 13828 8041 1 109.50000 418.400000
7563 13828 8040 1 109.50000 418.400000
7563 13828 8041 1 109.50000 418.400000
8040 13828 8041 1 109.50000 418.400000
2191 13829 2612 1 109.50000 418.400000
2191 13829 7422 1 109.50000 418.400000
2191 13829 8042 1 109.50000 418.400000
2612 13829 7422 1 109.50000 418.400000
2612 13829 8042 1 109.50000 418.400000
7422 13829 8042 1 109.50000 418.400000
2855 13830 4664 1 109.50000 418.400000
2855 13830 5930 1 109.50000 418.400000
2855 13830 8046 1 109.50000 418.400000
4664 13830 5930 1 109.50000 418.400000
4664 13830 8046 1 109.50000 418.400000
5930 13830 8046 1 109.50000 418.400000
5402 13831 6037 1 109.50000 418.400000
5402 13831 8047 1 109.50000 418.400000
5402 13831 8048 1 109.50000 418.400000
6037 13831 8047 1 109.50000 418.400000
6037 13831 8048 1 109.50000 418.400000
8047 13831 8048 1 109.50000 418.400000
926 13832 2449 1 109.50000 418.400000
926 13832 8049 1 109.50000 418.400000
926 13832 8050 1 109.50000 418.400000
2449 13832 8049 1 109.50000 418.400000
2449 13832 8050 1 109.50000 418.400000
8049 13832 8050 1 109.50000 418.400000
99 13833 7925 1 109.50000 418.400000
99 13833 8051 1 109.50000 418.400000
99 13833 8052 1 109.50000 418.400000
7925 13833 8051 1 109.50000 418.400000
7925 13833 8052 1 109.50000 418.400000
8051 13833 8052 1 109.50000 418.400000
32 13834 3401 1 109.50000 418.400000
32 13834 4064 1 109.50000 418.400000
32 13834 6276 1 109.50000 418.400000
3401 13834 4064 1 109.50000 418.400000
3401 13834 6276 1 109.50000 418.400000
4064 13834 6276 1 109.50000 418.400000
368 13835 3179 1 109.50000 418.400000
368 13835 8053 1 109.50000 418.400000
368 13835 8054 1 109.50000 418.400000
3179 13835 8053 1 109.50000 418.400000
3179 13835 8054 1 109.50000 418.400000
8053 13835 8054 1 109.50000 418.400000
6456 13836 8055 1 109.50000 418.400000
6456 13836 8056 1 109.50000 418.400000
6456 13836 8057 1 109.50000 418.400000
8055 13836 8056 1 109.50000 418.400000
8055 13836 8057 1 109.50000 418.400000
8056 13836 8057 1 109.50000 418.400000
4216 13837 8058 1 109.50000 418.400000
4216 13837 8059 1 109.50000 418.400000
4216 13837 11150 1 109.50000 418.400000
8058 13837 8059 1 109.50000 418.400000
8058 13837 11150 1 109.50000 418.400000
8059 13837 11150 1 109.50000 418.400000
2581 13838 7001 1 109.50000 418.400000
2581 13838 8060 1 109.50000 418.400000
2581 13838 8061 1 109.50000 418.400000
7001 13838 8060 1 109.50000 418.400000
7001 13838 8061 1 109.50000 418.400000
8060 13838 8061 1 109.50000 418.400000
4056 13839 5880 1 109.50000 418.400000
4056 13839 7188 1 109.50000 418.400000
4056 13839 8062 1 109.50000 418.400000
5880 13839 7188 1 109.50000 418.400000
5880 13839 8062 1 109.50000 418.400000
7188 13839 8062 1 109.50000 418.400000
4090 13840 4793 1 109.50000 418.400000
4090 13840 6139 1 109.50000 418.400000
4090 13840 8063 1 109.50000 418.400000
4793 13840 6139 1 109.50000 418.400000
4793 13840 8063 1 109.50000 418.400000
6139 13840 8063 1 109.50000 418.400000
3157 13841 8064 1 109.50000 418.400000
3157 13841 8065 1 109.50000 418.400000
3157 13841 8066 1 109.50000 418.400000
8064 13841 8065 1 109.50000 418.400000
8064 13841 8066 1 109.50000 418.400000
8065 13841 8066 1 109.50000 418.400000
2465 13842 5267 1 109.50000 418.400000
2465 13842 8068 1 109.50000 418.400000
2465 13842 8069 1 109.50000 418.400000
5267 13842 8068 1 109.50000 418.400000
5267 13842 8069 1 109.50000 418.400000
8068 13842 8069 1 109.50000 418.400000
58 13843 7841 1 109.50000 418.400000
58 13843 8070 1 109.50000 418.400000
58 13843 8071 1 109.50000 418.400000
7841 13843 8070 1 109.50000 418.400000
7841 13843 8071 1 109.50000 418.400000
8070 13843 8071 1 109.50000 418.400000
2183 13844 3483 1 109.50000 418.400000
2183 13844 3703 1 109.50000 418.400000
2183 13844 8072 1 109.50000 418.400000
3483 13844 3703 1 109.50000 418.400000
3483 13844 8072 1 109.50000 418.400000
3703 13844 8072 1 109.50000 418.400000
1136 13845 1524 1 109.50000 418.400000
1136 13845 4898 1 109.50000 418.400000
1136 13845 8073 1 109.50000 418.400000
1524 13845 4898 1 109.50000 418.400000
1524 13845 8073 1 109.50000 418.400000
4898 13845 8073 1 109.50000 418.400000
1600 13846 5149 1 109.50000 418.400000
1600 13846 7931 1 109.50000 418.400000
1600 13846 8074 1 109.50000 418.400000
5149 13846 7931 1 109.50000 418.400000
5149 13846 8074 1 109.50000 418.400000
7931 13846 8074 1 109.50000 418.400000
2815 13847 8075 1 109.50000 418.400000
2815 13847 8076 1 109.50000 418.400000
2815 13847 8077 1 109.50000 418.400000
8075 13847 8076 1 109.50000 418.400000
8075 13847 8077 1 109.50000 418.400000
8076 13847 8077 1 109.50000 418.400000
1078 13848 8078 1 109.50000 418.400000
1078 13848 8079 1 109.50000 418.400000
1078 13848 8080 1 109.50000 418.400000
8078 13848 8079 1 109.50000 418.400000
8078 13848 8080 1 109.50000 418.400000
8079 13848 8080 1 109.50000 418.400000
6702 13849 7254 1 109.50000 418.400000
6702 13849 8082 1 109.50000 418.400000
6702 13849 8083 1 109.50000 418.400000
7254 13849 8082 1 109.50000 418.400000
7254 13849 8083 1 109.50000 418.400000
8082 13849 8083 1 109.50000 418.400000
2091 13850 7885 1 109.50000 418.400000
2091 13850 8085 1 109.50000 418.400000
2091 13850 8086 1 109.50000 418.400000
7885 13850 8085 1 109.50000 418.400000
7885 13850 8086 1 109.50000 418.400000
8085 13850 8086 1 109.50000 418.400000
3064 13851 7452 1 109.50000 418.400000
3064 13851 8087 1 109.50000 418.400000
3064 13851 8088 1 109.50000 418.400000
7452 13851 8087 1 109.50000 418.400000
7452 13851 8088 1 109.50000 418.400000
8087 13851 8088 1 109.50000 418.400000
7597 13852 8094 1 109.50000 418.400000
7597 13852 8095 1 109.50000 418.400000
7597 13852 10370 1 109.50000 418.400000
8094 13852 8095 1 109.50000 418.400000
8094 13852 10370 1 109.50000 418.400000
8095 13852 10370 1 109.50000 418.400000
1783 13853 4250 1 109.50000 418.400000
1783 13853 8096 1 109.50000 418.400000
1783 13853 8097 1 109.50000 418.400000
4250 13853 8096 1 109.50000 418.400000
4250 13853 8097 1 109.50000 418.400000
8096 13853 8097 1 109.50000 418.400000
2235 13854 8098 1 109.50000 418.400000
2235 13854 8100 1 109.50000 418.400000
2235 13854 8101 1 109.50000 418.400000
8098 13854 8100 1 109.50000 418.400000
8098 13854 8101 1 109.50000 418.400000
8100 13854 8101 1 109.50000 418.400000
2665 13855 8102 1 109.50000 418.400000
2665 13855 8103 1 109.50000 418.400000
2665 13855 8104 1 109.50000 418.400000
8102 13855 8103 1 109.50000 418.400000
8102 13855 8104 1 109.50000 418.400000
8103 13855 8104 1 109.50000 418.400000
2303 13856 5330 1 109.50000 418.400000
2303 13856 7419 1 109.50000 418.400000
2303 13856 7549 1 109.50000 418.400000
5330 13856 7419 1 109.50000 418.400000
5330 13856 7549 1 109.50000 418.400000
7419 13856 7549 1 109.50000 418.400000
4599 13857 4841 1 109.50000 418.400000
4599 13857 6446 1 109.50000 418.400000
4599 13857 7533 1 109.50000 418.400000
4841 13857 6446 1 109.50000 418.400000
4841 13857 7533 1 109.50000 418.400000
6446 13857 7533 1 109.50000 418.400000
1961 13858 3531 1 109.50000 418.400000
1961 13858 5847 1 109.50000 418.400000
1961 13858 8107 1 109.50000 418.400000
3531 13858 5847 1 109.50000 418.400000
3531 13858 8107 1 109.50000 418.400000
5847 13858 8107 1 109.50000 418.400000
2072 13859 8108 1 109.50000 418.400000
2072 13859 8109 1 109.50000 418.400000
2072 13859 8110 1 109.50000 418.400000
8108 13859 8109 1 109.50000 418.400000
8108 13859 8110 1 109.50000 418.400000
8109 13859 8110 1 109.50000 418.400000
4760 13860 6591 1 109.50000 418.400000
4760 13860 8111 1 109.50000 418.400000
4760 13860 8112 1 109.50000 418.400000
6591 13860 8111 1 109.50000 418.400000
6591 13860 8112 1 109.50000 418.400000
8111 13860 8112 1 109.50000 418.400000
1692 13861 3240 1 109.50000 418.400000
1692 13861 8113 1 109.50000 418.400000
1692 13861 8114 1 109.50000 418.400000
3240 13861 8113 1 109.50000 418.400000
3240 13861 8114 1 109.50000 418.400000
8113 13861 8114 1 109.50000 418.400000
1618 13862 5664 1 109.50000 418.400000
1618 13862 6890 1 109.50000 418.400000
1618 13862 8116 1 109.50000 418.400000
5664 13862 6890 1 109.50000 418.400000
5664 13862 8116 1 109.50000 418.400000
6890 13862 8116 1 109.50000 418.400000
4559 13863 6166 1 109.50000 418.400000
4559 13863 8117 1 109.50000 418.400000
4559 13863 8118 1 109.50000 418.400000
6166 13863 8117 1 109.50000 418.400000
6166 13863 8118 1 109.50000 418.400000
8117 13863 8118 1 109.50000 418.400000
816 13864 8119 1 109.50000 418.400000
816 13864 8120 1 109.50000 418.400000
816 13864 8121 1 109.50000 418.400000
8119 13864 8120 1 109.50000 418.400000
8119 13864 8121 1 109.50000 418.400000
8120 13864 8121 1 109.50000 418.400000
3008 13865 3010 1 109.50000 418.400000
3008 13865 4640 1 109.50000 418.400000
3008 13865 8122 1 109.50000 418.400000
3010 13865 4640 1 109.50000 418.400000
3010 13865 8122 1 109.50000 418.400000
4640 13865 8122 1 109.50000 418.400000
5657 13866 7252 1 109.50000 418.400000
5657 13866 8123 1 109.50000 418.400000
5657 13866 8124 1 109.50000 418.400000
7252 13866 8123 1 109.50000 418.400000
7252 13866 8124 1 109.50000 418.400000
8123 13866 8124 1 109.50000 418.400000
475 13867 3947 1 109.50000 418.400000
475 13867 8125 1 109.50000 418.400000
475 13867 8126 1 109.50000 418.400000
3947 13867 8125 1 109.50000 418.400000
3947 13867 8126 1 109.50000 418.400000
8125 13867 8126 1 109.50000 418.400000
7389 13868 8127 1 109.50000 418.400000
7389 13868 8128 1 109.50000 418.400000
7389 13868 8129 1 109.50000 418.400000
8127 13868 8128 1 109.50000 418.400000
8127 13868 8129 1 109.50000 418.400000
8128 13868 8129 1 109.50000 418.400000
6808 13869 8114 1 109.50000 418.400000
6808 13869 8130 1 109.50000 418.400000
6808 13869 8131 1 109.50000 418.400000
8114 13869 8130 1 109.50000 418.400000
8114 13869 8131 1 109.50000 418.400000
8130 13869 8131 1 109.50000 418.400000
1246 13870 3235 1 109.50000 418.400000
1246 13870 8132 1 109.50000 418.400000
1246 13870 8133 1 109.50000 418.400000
3235 13870 8132 1 109.50000 418.400000
3235 13870 8133 1 109.50000 418.400000
8132 13870 8133 1 109.50000 418.400000
2484 13871 7859 1 109.50000 418.400000
2484 13871 8134 1 109.50000 418.400000
2484 13871 8135 1 109.50000 418.400000
7859 13871 8134 1 109.50000 418.400000
7859 13871 8135 1 109.50000 418.400000
8134 13871 8135 1 109.50000 418.400000
5950 13872 8136 1 109.50000 418.400000
5950 13872 8137 1 109.50000 418.400000
5950 13872 8138 1 109.50000 418.400000
8136 13872 8137 1 109.50000 418.400000
8136 13872 8138 1 109.50000 418.400000
8137 13872 8138 1 109.50000 418.400000
6599 13873 8139 1 109.50000 418.400000
6599 13873 8140 1 109.50000 418.400000
6599 13873 8141 1 109.50000 418.400000
8139 13873 8140 1 109.50000 418.400000
8139 13873 8141 1 109.50000 418.400000
8140 13873 8141 1 109.50000 418.400000
6056 13874 7529 1 109.50000 418.400000
6056 13874 8142 1 109.50000 418.400000
6056 13874 11277 1 109.50000 418.400000
7529 13874 8142 1 109.50000 418.400000
7529 13874 11277 1 109.50000 418.400000
8142 13874 11277 1 109.50000 418.400000
6922 13875 8143 1 109.50000 418.400000
6922 13875 8144 1 109.50000 418.400000
6922 13875 10063 1 109.50000 418.400000
8143 13875 8144 1 109.50000 418.400000
8143 13875 10063 1 109.50000 418.400000
8144 13875 10063 1 109.50000 418.400000
765 13876 5877 1 109.50000 418.400000
765 13876 6358 1 109.50000 418.400000
765 13876 8145 1 109.50000 418.400000
5877 13876 6358 1 109.50000 418.400000
5877 13876 8145 1 109.50000 418.400000
6358 13876 8145 1 109.50000 418.400000
2957 13877 3150 1 109.50000 418.400000
2957 13877 8146 1 109.50000 418.400000
2957 13877 8147 1 109.50000 418.400000
3150 13877 8146 1 109.50000 418.400000
3150 13877 8147 1 109.50000 418.400000
8146 13877 8147 1 109.50000 418.400000
467 13878 3028 1 109.50000 418.400000
467 13878 8149 1 109.50000 418.400000
467 13878 10793 1 109.50000 418.400000
3028 13878 8149 1 109.50000 418.400000
3028 13878 10793 1 109.50000 418.400000
8149 13878 10793 1 109.50000 418.400000
7364 13879 7762 1 109.50000 418.400000
7364 13879 7763 1 109.50000 418.400000
7364 13879 11276 1 109.50000 418.400000
7762 13879 7763 1 109.50000 418.400000
7762 13879 11276 1 109.50000 418.400000
7763 13879 11276 1 109.50000 418.400000
2848 13880 7213 1 109.50000 418.400000
2848 13880 8151 1 109.50000 418.400000
2848 13880 8152 1 109.50000 418.400000
7213 13880 8151 1 109.50000 418.400000
7213 13880 8152 1 109.50000 418.400000
8151 13880 8152 1 109.50000 418.400000
2177 13881 4737 1 109.50000 418.400000
2177 13881 8153 1 109.50000 418.400000
2177 13881 11304 1 109.50000 418.400000
4737 13881 8153 1 109.50000 418.400000
4737 13881 11304 1 109.50000 418.400000
8153 13881 11304 1 109.50000 418.400000
2441 13882 8154 1 109.50000 418.400000
2441 13882 8155 1 109.50000 418.400000
2441 13882 8157 1 109.50000 418.400000
8154 13882 8155 1 109.50000 418.400000
8154 13882 8157 1 109.50000 418.400000
8155 13882 8157 1 109.50000 418.400000
2691 13883 7559 1 109.50000 418.400000
2691 13883 8158 1 109.50000 418.400000
2691 13883 8159 1 109.50000 418.400000
7559 13883 8158 1 109.50000 418.400000
7559 13883 8159 1 109.50000 418.400000
8158 13883 8159 1 109.50000 418.400000
1463 13884 3263 1 109.50000 418.400000
1463 13884 8160 1 109.50000 418.400000
1463 13884 8162 1 109.50000 418.400000
3263 13884 8160 1 109.50000 418.400000
3263 13884 8162 1 109.50000 418.400000
8160 13884 8162 1 109.50000 418.400000
7321 13885 8052 1 109.50000 418.400000
7321 13885 8163 1 109.50000 418.400000
7321 13885 8164 1 109.50000 418.400000
8052 13885 8163 1 109.50000 418.400000
8052 13885 8164 1 109.50000 418.400000
8163 13885 8164 1 109.50000 418.400000
679 13886 1133 1 109.50000 418.400000
679 13886 1440 1 109.50000 418.400000
679 13886 8165 1 109.50000 418.400000
1133 13886 1440 1 109.50000 418.400000
1133 13886 8165 1 109.50000 418.400000
1440 13886 8165 1 109.50000 418.400000
3025 13887 5292 1 109.50000 418.400000
3025 13887 6318 1 109.50000 418.400000
3025 13887 8167 1 109.50000 418.400000
5292 13887 6318 1 109.50000 418.400000
5292 13887 8167 1 109.50000 418.400000
6318 13887 8167 1 109.50000 418.400000
1172 13888 5801 1 109.50000 418.400000
1172 13888 7307 1 109.50000 418.400000
1172 13888 8168 1 109.50000 418.400000
5801 13888 7307 1 109.50000 418.400000
5801 13888 8168 1 109.50000 418.400000
7307 13888 8168 1 109.50000 418.400000
327 13889 8169 1 109.50000 418.400000
327 13889 8170 1 109.50000 418.400000
327 13889 8171 1 109.50000 418.400000
8169 13889 8170 1 109.50000 418.400000
8169 13889 8171 1 109.50000 418.400000
8170 13889 8171 1 109.50000 418.400000
8175 13890 8176 1 109.50000 418.400000
8175 13890 8177 1 109.50000 418.400000
8175 13890 8178 1 109.50000 418.400000
8176 13890 8177 1 109.50000 418.400000
8176 13890 8178 1 109.50000 418.400000
8177 13890 8178 1 109.50000 418.400000
8179 13891 8180 1 109.50000 418.400000
8179 13891 8181 1 109.50000 418.400000
8179 13891 8182 1 109.50000 418.400000
8180 13891 8181 1 109.50000 418.400000
8180 13891 8182 1 109.50000 418.400000
8181 13891 8182 1 109.50000 418.400000
4743 13892 6159 1 109.50000 418.400000
4743 13892 8183 1 109.50000 418.400000
4743 13892 8184 1 109.50000 418.400000
6159 13892 8183 1 109.50000 418.400000
6159 13892 8184 1 109.50000 418.400000
8183 13892 8184 1 109.50000 418.400000
341 13893 3143 1 109.50000 418.400000
341 13893 3934 1 109.50000 418.400000
341 13893 8185 1 109.50000 418.400000
3143 13893 3934 1 109.50000 418.400000
3143 13893 8185 1 109.50000 418.400000
3934 13893 8185 1 109.50000 418.400000
7648 13894 8186 1 109.50000 418.400000
7648 13894 8187 1 109.50000 418.400000
7648 13894 8188 1 109.50000 418.400000
8186 13894 8187 1 109.50000 418.400000
8186 13894 8188 1 109.50000 418.400000
8187 13894 8188 1 109.50000 418.400000
2033 13895 8189 1 109.50000 418.400000
2033 13895 8190 1 109.50000 418.400000
2033 13895 8191 1 109.50000 418.400000
8189 13895 8190 1 109.50000 418.400000
8189 13895 8191 1 109.50000 418.400000
8190 13895 8191 1 109.50000 418.400000
2412 13896 8192 1 109.50000 418.400000
2412 13896 8193 1 109.50000 418.400000
2412 13896 8194 1 109.50000 418.400000
8192 13896 8193 1 109.50000 418.400000
8192 13896 8194 1 109.50000 418.400000
8193 13896 8194 1 109.50000 418.400000
7379 13897 8136 1 109.50000 418.400000
7379 13897 8195 1 109.50000 418.400000
7379 13897 8196 1 109.50000 418.400000
8136 13897 8195 1 109.50000 418.400000
8136 13897 8196 1 109.50000 418.400000
8195 13897 8196 1 109.50000 418.400000
5719 13898 6887 1 109.50000 418.400000
5719 13898 7028 1 109.50000 418.400000
5719 13898 8197 1 109.50000 418.400000
6887 13898 7028 1 109.50000 418.400000
6887 13898 8197 1 109.50000 418.400000
7028 13898 8197 1 109.50000 418.400000
6720 13899 8199 1 109.50000 418.400000
6720 13899 8200 1 109.50000 418.400000
6720 13899 8201 1 109.50000 418.400000
8199 13899 8200 1 109.50000 418.400000
8199 13899 8201 1 109.50000 418.400000
8200 13899 8201 1 109.50000 418.400000
2004 13900 5006 1 109.50000 418.400000
2004 13900 7500 1 109.50000 418.400000
2004 13900 8202 1 109.50000 418.400000
5006 13900 7500 1 109.50000 418.400000
5006 13900 8202 1 109.50000 418.400000
7500 13900 8202 1 109.50000 418.400000
4838 13901 7191 1 109.50000 418.400000
4838 13901 8203 1 109.50000 418.400000
4838 13901 8204 1 109.50000 418.400000
7191 13901 8203 1 109.50000 418.400000
7191 13901 8204 1 109.50000 418.400000
8203 13901 8204 1 109.50000 418.400000
3767 13902 8205 1 109.50000 418.400000
3767 13902 8206 1 109.50000 418.400000
3767 13902 8207 1 109.50000 418.400000
8205 13902 8206 1 109.50000 418.400000
8205 13902 8207 1 109.50000 418.400000
8206 13902 8207 1 109.50000 418.400000
4092 13903 6995 1 109.50000 418.400000
4092 13903 8208 1 109.50000 418.400000
4092 13903 8209 1 109.50000 418.400000
6995 13903 8208 1 109.50000 418.400000
6995 13903 8209 1 109.50000 418.400000
8208 13903 8209 1 109.50000 418.400000
2166 13904 4676 1 109.50000 418.400000
2166 13904 6497 1 109.50000 418.400000
2166 13904 8210 1 109.50000 418.400000
4676 13904 6497 1 109.50000 418.400000
4676 13904 8210 1 109.50000 418.400000
6497 13904 8210 1 109.50000 418.400000
1272 13905 3919 1 109.50000 418.400000
1272 13905 3920 1 109.50000 418.400000
1272 13905 5706 1 109.50000 418.400000
3919 13905 3920 1 109.50000 418.400000
3919 13905 5706 1 109.50000 418.400000
3920 13905 5706 1 109.50000 418.400000
4810 13906 4811 1 109.50000 418.400000
4810 13906 5151 1 109.50000 418.400000
4810 13906 8213 1 109.50000 418.400000
4811 13906 5151 1 109.50000 418.400000
4811 13906 8213 1 109.50000 418.400000
5151 13906 8213 1 109.50000 418.400000
6657 13907 7619 1 109.50000 418.400000
6657 13907 8214 1 109.50000 418.400000
6657 13907 8215 1 109.50000 418.400000
7619 13907 8214 1 109.50000 418.400000
7619 13907 8215 1 109.50000 418.400000
8214 13907 8215 1 109.50000 418.400000
4406 13908 6240 1 109.50000 418.400000
4406 13908 6882 1 109.50000 418.400000
4406 13908 8217 1 109.50000 418.400000
6240 13908 6882 1 109.50000 418.400000
6240 13908 8217 1 109.50000 418.400000
6882 13908 8217 1 109.50000 418.400000
2944 13909 5406 1 109.50000 418.400000
2944 13909 8218 1 109.50000 418.400000
2944 13909 8219 1 109.50000 418.400000
5406 13909 8218 1 109.50000 418.400000
5406 13909 8219 1 109.50000 418.400000
8218 13909 8219 1 109.50000 418.400000
282 13910 1533 1 109.50000 418.400000
282 13910 3821 1 109.50000 418.400000
282 13910 8220 1 109.50000 418.400000
1533 13910 3821 1 109.50000 418.400000
1533 13910 8220 1 109.50000 418.400000
3821 13910 8220 1 109.50000 418.400000
5717 13911 7910 1 109.50000 418.400000
5717 13911 8221 1 109.50000 418.400000
5717 13911 11175 1 109.50000 418.400000
7910 13911 8221 1 109.50000 418.400000
7910 13911 11175 1 109.50000 418.400000
8221 13911 11175 1 109.50000 418.400000
6093 13912 8223 1 109.50000 418.400000
6093 13912 8224 1 109.50000 418.400000
6093 13912 8225 1 109.50000 418.400000
8223 13912 8224 1 109.50000 418.400000
8223 13912 8225 1 109.50000 418.400000
8224 13912 8225 1 109.50000 418.400000
335 13913 8226 1 109.50000 418.400000
335 13913 8227 1 109.50000 418.400000
335 13913 8228 1 109.50000 418.400000
8226 13913 8227 1 109.50000 418.400000
8226 13913 8228 1 109.50000 418.400000
8227 13913 8228 1 109.50000 418.400000
2329 13914 4034 1 109.50000 418.400000
2329 13914 6481 1 109.50000 418.400000
2329 13914 7317 1 109.50000 418.400000
4034 13914 6481 1 109.50000 418.400000
4034 13914 7317 1 109.50000 418.400000
6481 13914 7317 1 109.50000 418.400000
8229 13915 8230 1 109.50000 418.400000
8229 13915 8231 1 109.50000 418.400000
8229 13915 8232 1 109.50000 418.400000
8230 13915 8231 1 109.50000 418.400000
8230 13915 8232 1 109.50000 418.400000
8231 13915 8232 1 109.50000 418.400000
558 13916 1991 1 109.50000 418.400000
558 13916 8233 1 109.50000 418.400000
558 13916 8234 1 109.50000 418.400000
1991 13916 8233 1 109.50000 418.400000
1991 13916 8234 1 109.50000 418.400000
8233 13916 8234 1 109.50000 418.400000
51 13917 2888 1 109.50000 418.400000
51 13917 8235 1 109.50000 418.400000
51 13917 8236 1 109.50000 418.400000
2888 13917 8235 1 109.50000 418.400000
2888 13917 8236 1 109.50000 418.400000
8235 13917 8236 1 109.50000 418.400000
6157 13918 6334 1 109.50000 418.400000
6157 13918 8238 1 109.50000 418.400000
6157 13918 8239 1 109.50000 418.400000
6334 13918 8238 1 109.50000 418.400000
6334 13918 8239 1 109.50000 418.400000
8238 13918 8239 1 109.50000 418.400000
5196 13919 8241 1 109.50000 418.400000
5196 13919 8242 1 109.50000 418.400000
5196 13919 8609 1 109.50000 418.400000
8241 13919 8242 1 109.50000 418.400000
8241 13919 8609 1 109.50000 418.400000
8242 13919 8609 1 109.50000 418.400000
5034 13920 8243 1 109.50000 418.400000
5034 13920 8244 1 109.50000 418.400000
5034 13920 8245 1 109.50000 418.400000
8243 13920 8244 1 109.50000 418.400000
8243 13920 8245 1 109.50000 418.400000
8244 13920 8245 1 109.50000 418.400000
5854 13921 7800 1 109.50000 418.400000
5854 13921 8247 1 109.50000 418.400000
5854 13921 11194 1 109.50000 418.400000
7800 13921 8247 1 109.50000 418.400000
7800 13921 11194 1 109.50000 418.400000
8247 13921 11194 1 109.50000 418.400000
3840 13922 7122 1 109.50000 418.400000
3840 13922 8199 1 109.50000 418.400000
3840 13922 8248 1 109.50000 418.400000
7122 13922 8199 1 109.50000 418.400000
7122 13922 8248 1 109.50000 418.400000
8199 13922 8248 1 109.50000 418.400000
8249 13923 8250 1 109.50000 418.400000
8249 13923 8251 1 109.50000 418.400000
8249 13923 8252 1 109.50000 418.400000
8250 13923 8251 1 109.50000 418.400000
8250 13923 8252 1 109.50000 418.400000
8251 13923 8252 1 109.50000 418.400000
5855 13924 8253 1 109.50000 418.400000
5855 13924 8254 1 109.50000 418.400000
5855 13924 8255 1 109.50000 418.400000
8253 13924 8254 1 109.50000 418.400000
8253 13924 8255 1 109.50000 418.400000
8254 13924 8255 1 109.50000 418.400000
4220 13925 8256 1 109.50000 418.400000
4220 13925 8257 1 109.50000 418.400000
4220 13925 8258 1 109.50000 418.400000
8256 13925 8257 1 109.50000 418.400000
8256 13925 8258 1 109.50000 418.400000
8257 13925 8258 1 109.50000 418.400000
3862 13926 6438 1 109.50000 418.400000
3862 13926 8260 1 109.50000 418.400000
3862 13926 8261 1 109.50000 418.400000
6438 13926 8260 1 109.50000 418.400000
6438 13926 8261 1 109.50000 418.400000
8260 13926 8261 1 109.50000 418.400000
1167 13927 3724 1 109.50000 418.400000
1167 13927 8263 1 109.50000 418.400000
1167 13927 8264 1 109.50000 418.400000
3724 13927 8263 1 109.50000 418.400000
3724 13927 8264 1 109.50000 418.400000
8263 13927 8264 1 109.50000 418.400000
5459 13928 8266 1 109.50000 418.400000
5459 13928 8267 1 109.50000 418.400000
5459 13928 8268 1 109.50000 418.400000
8266 13928 8267 1 109.50000 418.400000
8266 13928 8268 1 109.50000 418.400000
8267 13928 8268 1 109.50000 418.400000
102 13929 8269 1 109.50000 418.400000
102 13929 8270 1 109.50000 418.400000
102 13929 8271 1 109.50000 418.400000
8269 13929 8270 1 109.50000 418.400000
8269 13929 8271 1 109.50000 418.400000
8270 13929 8271 1 109.50000 418.400000
2819 13930 4755 1 109.50000 418.400000
2819 13930 8042 1 109.50000 418.400000
2819 13930 8272 1 109.50000 418.400000
4755 13930 8042 1 109.50000 418.400000
4755 13930 8272 1 109.50000 418.400000
8042 13930 8272 1 109.50000 418.400000
438 13931 1211 1 109.50000 418.400000
438 13931 5074 1 109.50000 418.400000
438 13931 8273 1 109.50000 418.400000
1211 13931 5074 1 109.50000 418.400000
1211 13931 8273 1 109.50000 418.400000
5074 13931 8273 1 109.50000 418.400000
1135 13932 2679 1 109.50000 418.400000
1135 13932 7370 1 109.50000 418.400000
1135 13932 8274 1 109.50000 418.400000
2679 13932 7370 1 109.50000 418.400000
2679 13932 8274 1 109.50000 418.400000
7370 13932 8274 1 109.50000 418.400000
2256 13933 5191 1 109.50000 418.400000
2256 13933 5726 1 109.50000 418.400000
2256 13933 8275 1 109.50000 418.400000
5191 13933 5726 1 109.50000 418.400000
5191 13933 8275 1 109.50000 418.400000
5726 13933 8275 1 109.50000 418.400000
4822 13934 6545 1 109.50000 418.400000
4822 13934 6546 1 109.50000 418.400000
4822 13934 8278 1 109.50000 418.400000
6545 13934 6546 1 109.50000 418.400000
6545 13934 8278 1 109.50000 418.400000
6546 13934 8278 1 109.50000 418.400000
694 13935 6361 1 109.50000 418.400000
694 13935 6363 1 109.50000 418.400000
694 13935 8280 1 109.50000 418.400000
6361 13935 6363 1 109.50000 418.400000
6361 13935 8280 1 109.50000 418.400000
6363 13935 8280 1 109.50000 418.400000
7722 13936 8281 1 109.50000 418.400000
7722 13936 8282 1 109.50000 418.400000
7722 13936 8998 1 109.50000 418.400000
8281 13936 8282 1 109.50000 418.400000
8281 13936 8998 1 109.50000 418.400000
8282 13936 8998 1 109.50000 418.400000
8284 13937 8285 1 109.50000 418.400000
8284 13937 8286 1 109.50000 418.400000
8284 13937 8287 1 109.50000 418.400000
8285 13937 8286 1 109.50000 418.400000
8285 13937 8287 1 109.50000 418.400000
8286 13937 8287 1 109.50000 418.400000
8290 13938 8291 1 109.50000 418.400000
8290 13938 9568 1 109.50000 418.400000
8290 13938 10944 1 109.50000 418.400000
8291 13938 9568 1 109.50000 418.400000
8291 13938 10944 1 109.50000 418.400000
9568 13938 10944 1 109.50000 418.400000
198 13939 6468 1 109.50000 418.400000
198 13939 8292 1 109.50000 418.400000
198 13939 8293 1 109.50000 418.400000
6468 13939 8292 1 109.50000 418.400000
6468 13939 8293 1 109.50000 418.400000
8292 13939 8293 1 109.50000 418.400000
6449 13940 6742 1 109.50000 418.400000
6449 13940 8295 1 109.50000 418.400000
6449 13940 8296 1 109.50000 418.400000
6742 13940 8295 1 109.50000 418.400000
6742 13940 8296 1 109.50000 418.400000
8295 13940 8296 1 109.50000 418.400000
2121 13941 3819 1 109.50000 418.400000
2121 13941 4294 1 109.50000 418.400000
2121 13941 8297 1 109.50000 418.400000
3819 13941 4294 1 109.50000 418.400000
3819 13941 8297 1 109.50000 418.400000
4294 13941 8297 1 109.50000 418.400000
1831 13942 8299 1 109.50000 418.400000
1831 13942 8300 1 109.50000 418.400000
1831 13942 8301 1 109.50000 418.400000
8299 13942 8300 1 109.50000 418.400000
8299 13942 8301 1 109.50000 418.400000
8300 13942 8301 1 109.50000 418.400000
4998 13943 8302 1 109.50000 418.400000
4998 13943 8303 1 109.50000 418.400000
4998 13943 8304 1 109.50000 418.400000
8302 13943 8303 1 109.50000 418.400000
8302 13943 8304 1 109.50000 418.400000
8303 13943 8304 1 109.50000 418.400000
3827 13944 4543 1 109.50000 418.400000
3827 13944 8305 1 109.50000 418.400000
3827 13944 8306 1 109.50000 418.400000
4543 13944 8305 1 109.50000 418.400000
4543 13944 8306 1 109.50000 418.400000
8305 13944 8306 1 109.50000 418.400000
2422 13945 4700 1 109.50000 418.400000
2422 13945 8307 1 109.50000 418.400000
2422 13945 8308 1 109.50000 418.400000
4700 13945 8307 1 109.50000 418.400000
4700 13945 8308 1 109.50000 418.400000
8307 13945 8308 1 109.50000 418.400000
1626 13946 8309 1 109.50000 418.400000
1626 13946 8310 1 109.50000 418.400000
1626 13946 8311 1 109.50000 418.400000
8309 13946 8310 1 109.50000 418.400000
8309 13946 8311 1 109.50000 418.400000
8310 13946 8311 1 109.50000 418.400000
5794 13947 5797 1 109.50000 418.400000
5794 13947 8312 1 109.50000 418.400000
5794 13947 8313 1 109.50000 418.400000
5797 13947 8312 1 109.50000 418.400000
5797 13947 8313 1 109.50000 418.400000
8312 13947 8313 1 109.50000 418.400000
8316 13948 8317 1 109.50000 418.400000
8316 13948 8318 1 109.50000 418.400000
8316 13948 8319 1 109.50000 418.400000
8317 13948 8318 1 109.50000 418.400000
8317 13948 8319 1 109.50000 418.400000
8318 13948 8319 1 109.50000 418.400000
922 13949 1193 1 109.50000 418.400000
922 13949 7809 1 109.50000 418.400000
922 13949 8320 1 109.50000 418.400000
1193 13949 7809 1 109.50000 418.400000
1193 13949 8320 1 109.50000 418.400000
7809 13949 8320 1 109.50000 418.400000
6217 13950 8029 1 109.50000 418.400000
6217 13950 8321 1 109.50000 418.400000
6217 13950 8322 1 109.50000 418.400000
8029 13950 8321 1 109.50000 418.400000
8029 13950 8322 1 109.50000 418.400000
8321 13950 8322 1 109.50000 418.400000
422 13951 5953 1 109.50000 418.400000
422 13951 8323 1 109.50000 418.400000
422 13951 8324 1 109.50000 418.400000
5953 13951 8323 1 109.50000 418.400000
5953 13951 8324 1 109.50000 418.400000
8323 13951 8324 1 109.50000 418.400000
3297 13952 8186 1 109.50000 418.400000
3297 13952 8325 1 109.50000 418.400000
3297 13952 8326 1 109.50000 418.400000
8186 13952 8325 1 109.50000 418.400000
8186 13952 8326 1 109.50000 418.400000
8325 13952 8326 1 109.50000 418.400000
8327 13953 8328 1 109.50000 418.400000
8327 13953 8329 1 109.50000 418.400000
8327 13953 8330 1 109.50000 418.400000
8328 13953 8329 1 109.50000 418.400000
8328 13953 8330 1 109.50000 418.400000
8329 13953 8330 1 109.50000 418.400000
3836 13954 8333 1 109.50000 418.400000
3836 13954 8334 1 109.50000 418.400000
3836 13954 8335 1 109.50000 418.400000
8333 13954 8334 1 109.50000 418.400000
8333 13954 8335 1 109.50000 418.400000
8334 13954 8335 1 109.50000 418.400000
8336 13955 8337 1 109.50000 418.400000
8336 13955 8338 1 109.50000 418.400000
8336 13955 8339 1 109.50000 418.400000
8337 13955 8338 1 109.50000 418.400000
8337 13955 8339 1 109.50000 418.400000
8338 13955 8339 1 109.50000 418.400000
2788 13956 3197 1 109.50000 418.400000
2788 13956 8340 1 109.50000 418.400000
2788 13956 8341 1 109.50000 418.400000
3197 13956 8340 1 109.50000 418.400000
3197 13956 8341 1 109.50000 418.400000
8340 13956 8341 1 109.50000 418.400000
5653 13957 5654 1 109.50000 418.400000
5653 13957 7451 1 109.50000 418.400000
5653 13957 8342 1 109.50000 418.400000
5654 13957 7451 1 109.50000 418.400000
5654 13957 8342 1 109.50000 418.400000
7451 13957 8342 1 109.50000 418.400000
2831 13958 8343 1 109.50000 418.400000
2831 13958 8344 1 109.50000 418.400000
2831 13958 8345 1 109.50000 418.400000
8343 13958 8344 1 109.50000 418.400000
8343 13958 8345 1 109.50000 418.400000
8344 13958 8345 1 109.50000 418.400000
6294 13959 6588 1 109.50000 418.400000
6294 13959 8346 1 109.50000 418.400000
6294 13959 8347 1 109.50000 418.400000
6588 13959 8346 1 109.50000 418.400000
6588 13959 8347 1 109.50000 418.400000
8346 13959 8347 1 109.50000 418.400000
539 13960 8348 1 109.50000 418.400000
539 13960 8349 1 109.50000 418.400000
539 13960 8350 1 109.50000 418.400000
8348 13960 8349 1 109.50000 418.400000
8348 13960 8350 1 109.50000 418.400000
8349 13960 8350 1 109.50000 418.400000
3427 13961 5046 1 109.50000 418.400000
3427 13961 6930 1 109.50000 418.400000
3427 13961 8104 1 109.50000 418.400000
5046 13961 6930 1 109.50000 418.400000
5046 13961 8104 1 109.50000 418.400000
6930 13961 8104 1 109.50000 418.400000
5827 13962 8351 1 109.50000 418.400000
5827 13962 8352 1 109.50000 418.400000
5827 13962 8353 1 109.50000 418.400000
8351 13962 8352 1 109.50000 418.400000
8351 13962 8353 1 109.50000 418.400000
8352 13962 8353 1 109.50000 418.400000
6490 13963 8355 1 109.50000 418.400000
6490 13963 8356 1 109.50000 418.400000
6490 13963 10119 1 109.50000 418.400000
8355 13963 8356 1 109.50000 418.400000
8355 13963 10119 1 109.50000 418.400000
8356 13963 10119 1 109.50000 418.400000
633 13964 6275 1 109.50000 418.400000
633 13964 8357 1 109.50000 418.400000
633 13964 8358 1 109.50000 418.400000
6275 13964 8357 1 109.50000 418.400000
6275 13964 8358 1 109.50000 418.400000
8357 13964 8358 1 109.50000 418.400000
6079 13965 8359 1 109.50000 418.400000
6079 13965 8360 1 109.50000 418.400000
6079 13965 8361 1 109.50000 418.400000
8359 13965 8360 1 109.50000 418.400000
8359 13965 8361 1 109.50000 418.400000
8360 13965 8361 1 109.50000 418.400000
6532 13966 7465 1 109.50000 418.400000
6532 13966 7948 1 109.50000 418.400000
6532 13966 8362 1 109.50000 418.400000
7465 13966 7948 1 109.50000 418.400000
7465 13966 8362 1 109.50000 418.400000
7948 13966 8362 1 109.50000 418.400000
5968 13967 8363 1 109.50000 418.400000
5968 13967 8364 1 109.50000 418.400000
5968 13967 8365 1 109.50000 418.400000
8363 13967 8364 1 109.50000 418.400000
8363 13967 8365 1 109.50000 418.400000
8364 13967 8365 1 109.50000 418.400000
3606 13968 3979 1 109.50000 418.400000
3606 13968 8366 1 109.50000 418.400000
3606 13968 8367 1 109.50000 418.400000
3979 13968 8366 1 109.50000 418.400000
3979 13968 8367 1 109.50000 418.400000
8366 13968 8367 1 109.50000 418.400000
4772 13969 6039 1 109.50000 418.400000
4772 13969 7687 1 109.50000 418.400000
4772 13969 8372 1 109.50000 418.400000
6039 13969 7687 1 109.50000 418.400000
6039 13969 8372 1 109.50000 418.400000
7687 13969 8372 1 109.50000 418.400000
1985 13970 5388 1 109.50000 418.400000
1985 13970 8374 1 109.50000 418.400000
1985 13970 8375 1 109.50000 418.400000
5388 13970 8374 1 109.50000 418.400000
5388 13970 8375 1 109.50000 418.400000
8374 13970 8375 1 109.50000 418.400000
359 13971 1686 1 109.50000 418.400000
359 13971 1687 1 109.50000 418.400000
359 13971 8377 1 109.50000 418.400000
1686 13971 1687 1 109.50000 418.400000
1686 13971 8377 1 109.50000 418.400000
1687 13971 8377 1 109.50000 418.400000
2521 13972 5750 1 109.50000 418.400000
2521 13972 5770 1 109.50000 418.400000
2521 13972 8378 1 109.50000 418.400000
5750 13972 5770 1 109.50000 418.400000
5750 13972 8378 1 109.50000 418.400000
5770 13972 8378 1 109.50000 418.400000
2797 13973 4346 1 109.50000 418.400000
2797 13973 8379 1 109.50000 418.400000
2797 13973 8380 1 109.50000 418.400000
4346 13973 8379 1 109.50000 418.400000
4346 13973 8380 1 109.50000 418.400000
8379 13973 8380 1 109.50000 418.400000
767 13974 1936 1 109.50000 418.400000
767 13974 8382 1 109.50000 418.400000
767 13974 8383 1 109.50000 418.400000
1936 13974 8382 1 109.50000 418.400000
1936 13974 8383 1 109.50000 418.400000
8382 13974 8383 1 109.50000 418.400000
256 13975 1827 1 109.50000 418.400000
256 13975 6834 1 109.50000 418.400000
256 13975 8384 1 109.50000 418.400000
1827 13975 6834 1 109.50000 418.400000
1827 13975 8384 1 109.50000 418.400000
6834 13975 8384 1 109.50000 418.400000
480 13976 5688 1 109.50000 418.400000
480 13976 8010 1 109.50000 418.400000
480 13976 8385 1 109.50000 418.400000
5688 13976 8010 1 109.50000 418.400000
5688 13976 8385 1 109.50000 418.400000
8010 13976 8385 1 109.50000 418.400000
3722 13977 8386 1 109.50000 418.400000
3722 13977 8387 1 109.50000 418.400000
3722 13977 8388 1 109.50000 418.400000
8386 13977 8387 1 109.50000 418.400000
8386 13977 8388 1 109.50000 418.400000
8387 13977 8388 1 109.50000 418.400000
1752 13978 5552 1 109.50000 418.400000
1752 13978 7255 1 109.50000 418.400000
1752 13978 8389 1 109.50000 418.400000
5552 13978 7255 1 109.50000 418.400000
5552 13978 8389 1 109.50000 418.400000
7255 13978 8389 1 109.50000 418.400000
6234 13979 8390 1 109.50000 418.400000
6234 13979 8391 1 109.50000 418.400000
6234 13979 10272 1 109.50000 418.400000
8390 13979 8391 1 109.50000 418.400000
8390 13979 10272 1 109.50000 418.400000
8391 13979 10272 1 109.50000 418.400000
3656 13980 5310 1 109.50000 418.400000
3656 13980 8392 1 109.50000 418.400000
3656 13980 8393 1 109.50000 418.400000
5310 13980 8392 1 109.50000 418.400000
5310 13980 8393 1 109.50000 418.400000
8392 13980 8393 1 109.50000 418.400000
4851 13981 8394 1 109.50000 418.400000
4851 13981 8395 1 109.50000 418.400000
4851 13981 8396 1 109.50000 418.400000
8394 13981 8395 1 109.50000 418.400000
8394 13981 8396 1 109.50000 418.400000
8395 13981 8396 1 109.50000 418.400000
1794 13982 6524 1 109.50000 418.400000
1794 13982 8397 1 109.50000 418.400000
1794 13982 8398 1 109.50000 418.400000
6524 13982 8397 1 109.50000 418.400000
6524 13982 8398 1 109.50000 418.400000
8397 13982 8398 1 109.50000 418.400000
53 13983 6471 1 109.50000 418.400000
53 13983 8399 1 109.50000 418.400000
53 13983 8400 1 109.50000 418.400000
6471 13983 8399 1 109.50000 418.400000
6471 13983 8400 1 109.50000 418.400000
8399 13983 8400 1 109.50000 418.400000
492 13984 5751 1 109.50000 418.400000
492 13984 8401 1 109.50000 418.400000
492 13984 8402 1 109.50000 418.400000
5751 13984 8401 1 109.50000 418.400000
5751 13984 8402 1 109.50000 418.400000
8401 13984 8402 1 109.50000 418.400000
229 13985 4242 1 109.50000 418.400000
229 13985 6526 1 109.50000 418.400000
229 13985 7153 1 109.50000 418.400000
4242 13985 6526 1 109.50000 418.400000
4242 13985 7153 1 109.50000 418.400000
6526 13985 7153 1 109.50000 418.400000
1556 13986 1892 1 109.50000 418.400000
1556 13986 1894 1 109.50000 418.400000
1556 13986 8403 1 109.50000 418.400000
1892 13986 1894 1 109.50000 418.400000
1892 13986 8403 1 109.50000 418.400000
1894 13986 8403 1 109.50000 418.400000
3335 13987 7913 1 109.50000 418.400000
3335 13987 8406 1 109.50000 418.400000
3335 13987 8407 1 109.50000 418.400000
7913 13987 8406 1 109.50000 418.400000
7913 13987 8407 1 109.50000 418.400000
8406 13987 8407 1 109.50000 418.400000
8408 13988 8409 1 109.50000 418.400000
8408 13988 8410 1 109.50000 418.400000
8408 13988 9452 1 109.50000 418.400000
8409 13988 8410 1 109.50000 418.400000
8409 13988 9452 1 109.50000 418.400000
8410 13988 9452 1 109.50000 418.400000
4315 13989 5789 1 109.50000 418.400000
4315 13989 8411 1 109.50000 418.400000
4315 13989 10028 1 109.50000 418.400000
5789 13989 8411 1 109.50000 418.400000
5789 13989 10028 1 109.50000 418.400000
8411 13989 10028 1 109.50000 418.400000
723 13990 724 1 109.50000 418.400000
723 13990 8413 1 109.50000 418.400000
723 13990 8414 1 109.50000 418.400000
724 13990 8413 1 109.50000 418.400000
724 13990 8414 1 109.50000 418.400000
8413 13990 8414 1 109.50000 418.400000
4512 13991 8415 1 109.50000 418.400000
4512 13991 8416 1 109.50000 418.400000
4512 13991 8417 1 109.50000 418.400000
8415 13991 8416 1 109.50000 418.400000
8415 13991 8417 1 109.50000 418.400000
8416 13991 8417 1 109.50000 418.400000
7428 13992 8418 1 109.50000 418.400000
7428 13992 8419 1 109.50000 418.400000
7428 13992 8420 1 109.50000 418.400000
8418 13992 8419 1 109.50000 418.400000
8418 13992 8420 1 109.50000 418.400000
8419 13992 8420 1 109.50000 418.400000
3384 13993 5223 1 109.50000 418.400000
3384 13993 5224 1 109.50000 418.400000
3384 13993 8422 1 109.50000 418.400000
5223 13993 5224 1 109.50000 418.400000
5223 13993 8422 1 109.50000 418.400000
5224 13993 8422 1 109.50000 418.400000
8367 13994 8423 1 109.50000 418.400000
8367 13994 8424 1 109.50000 418.400000
8367 13994 8425 1 109.50000 418.400000
8423 13994 8424 1 109.50000 418.400000
8423 13994 8425 1 109.50000 418.400000
8424 13994 8425 1 109.50000 418.400000
1018 13995 7611 1 109.50000 418.400000
1018 13995 7812 1 109.50000 418.400000
1018 13995 8427 1 109.50000 418.400000
7611 13995 7812 1 109.50000 418.400000
7611 13995 8427 1 109.50000 418.400000
7812 13995 8427 1 109.50000 418.400000
3883 13996 5131 1 109.50000 418.400000
3883 13996 8430 1 109.50000 418.400000
3883 13996 8431 1 109.50000 418.400000
5131 13996 8430 1 109.50000 418.400000
5131 13996 8431 1 109.50000 418.400000
8430 13996 8431 1 109.50000 418.400000
7569 13997 7968 1 109.50000 418.400000
7569 13997 8432 1 109.50000 418.400000
7569 13997 8433 1 109.50000 418.400000
7968 13997 8432 1 109.50000 418.400000
7968 13997 8433 1 109.50000 418.400000
8432 13997 8433 1 109.50000 418.400000
1151 13998 7600 1 109.50000 418.400000
1151 13998 8434 1 109.50000 418.400000
1151 13998 8435 1 109.50000 418.400000
7600 13998 8434 1 109.50000 418.400000
7600 13998 8435 1 109.50000 418.400000
8434 13998 8435 1 109.50000 418.400000
887 13999 8369 1 109.50000 418.400000
887 13999 8438 1 109.50000 418.400000
887 13999 8439 1 109.50000 418.400000
8369 13999 8438 1 109.50000 418.400000
8369 13999 8439 1 109.50000 418.400000
8438 13999 8439 1 109.50000 418.400000
3941 14000 4544 1 109.50000 418.400000
3941 14000 8440 1 109.50000 418.400000
3941 14000 8441 1 109.50000 418.400000
4544 14000 8440 1 109.50000 418.400000
4544 14000 8441 1 109.50000 418.400000
8440 14000 8441 1 109.50000 418.400000
4828 14001 5309 1 109.50000 418.400000
4828 14001 7694 1 109.50000 418.400000
4828 14001 8442 1 109.50000 418.400000
5309 14001 7694 1 109.50000 418.400000
5309 14001 8442 1 109.50000 418.400000
7694 14001 8442 1 109.50000 418.400000
809 14002 2792 1 109.50000 418.400000
809 14002 8151 1 109.50000 418.400000
809 14002 8443 1 109.50000 418.400000
2792 14002 8151 1 109.50000 418.400000
2792 14002 8443 1 109.50000 418.400000
8151 14002 8443 1 109.50000 418.400000
1737 14003 5982 1 109.50000 418.400000
1737 14003 8444 1 109.50000 418.400000
1737 14003 10296 1 109.50000 418.400000
5982 14003 8444 1 109.50000 418.400000
5982 14003 10296 1 109.50000 418.400000
8444 14003 10296 1 109.50000 418.400000
2120 14004 8445 1 109.50000 418.400000
2120 14004 8446 1 109.50000 418.400000
2120 14004 8447 1 109.50000 418.400000
8445 14004 8446 1 109.50000 418.400000
8445 14004 8447 1 109.50000 418.400000
8446 14004 8447 1 109.50000 418.400000
1255 14005 4993 1 109.50000 418.400000
1255 14005 8448 1 109.50000 418.400000
1255 14005 8449 1 109.50000 418.400000
4993 14005 8448 1 109.50000 418.400000
4993 14005 8449 1 109.50000 418.400000
8448 14005 8449 1 109.50000 418.400000
8451 14006 8452 1 109.50000 418.400000
8451 14006 8453 1 109.50000 418.400000
8451 14006 10489 1 109.50000 418.400000
8452 14006 8453 1 109.50000 418.400000
8452 14006 10489 1 109.50000 418.400000
8453 14006 10489 1 109.50000 418.400000
40 14007 3667 1 109.50000 418.400000
40 14007 5549 1 109.50000 418.400000
40 14007 8455 1 109.50000 418.400000
3667 14007 5549 1 109.50000 418.400000
3667 14007 8455 1 109.50000 418.400000
5549 14007 8455 1 109.50000 418.400000
2182 14008 5336 1 109.50000 418.400000
2182 14008 5337 1 109.50000 418.400000
2182 14008 8193 1 109.50000 418.400000
5336 14008 5337 1 109.50000 418.400000
5336 14008 8193 1 109.50000 418.400000
5337 14008 8193 1 109.50000 418.400000
1785 14009 3637 1 109.50000 418.400000
1785 14009 8457 1 109.50000 418.400000
1785 14009 8458 1 109.50000 418.400000
3637 14009 8457 1 109.50000 418.400000
3637 14009 8458 1 109.50000 418.400000
8457 14009 8458 1 109.50000 418.400000
3714 14010 3955 1 109.50000 418.400000
3714 14010 7185 1 109.50000 418.400000
3714 14010 8460 1 109.50000 418.400000
3955 14010 7185 1 109.50000 418.400000
3955 14010 8460 1 109.50000 418.400000
7185 14010 8460 1 109.50000 418.400000
57 14011 8462 1 109.50000 418.400000
57 14011 8463 1 109.50000 418.400000
57 14011 8464 1 109.50000 418.400000
8462 14011 8463 1 109.50000 418.400000
8462 14011 8464 1 109.50000 418.400000
8463 14011 8464 1 109.50000 418.400000
158 14012 5937 1 109.50000 418.400000
158 14012 8465 1 109.50000 418.400000
158 14012 8466 1 109.50000 418.400000
5937 14012 8465 1 109.50000 418.400000
5937 14012 8466 1 109.50000 418.400000
8465 14012 8466 1 109.50000 418.400000
1564 14013 5066 1 109.50000 418.400000
1564 14013 6326 1 109.50000 418.400000
1564 14013 8467 1 109.50000 418.400000
5066 14013 6326 1 109.50000 418.400000
5066 14013 8467 1 109.50000 418.400000
6326 14013 8467 1 109.50000 418.400000
8468 14014 8469 1 109.50000 418.400000
8468 14014 8470 1 109.50000 418.400000
8468 14014 8471 1 109.50000 418.400000
8469 14014 8470 1 109.50000 418.400000
8469 14014 8471 1 109.50000 418.400000
8470 14014 8471 1 109.50000 418.400000
2766 14015 3469 1 109.50000 418.400000
2766 14015 6723 1 109.50000 418.400000
2766 14015 8472 1 109.50000 418.400000
3469 14015 6723 1 109.50000 418.400000
3469 14015 8472 1 109.50000 418.400000
6723 14015 8472 1 109.50000 418.400000
1365 14016 5944 1 109.50000 418.400000
1365 14016 7058 1 109.50000 418.400000
1365 14016 7397 1 109.50000 418.400000
5944 14016 7058 1 109.50000 418.400000
5944 14016 7397 1 109.50000 418.400000
7058 14016 7397 1 109.50000 418.400000
1336 14017 6940 1 109.50000 418.400000
1336 14017 7618 1 109.50000 418.400000
1336 14017 8475 1 109.50000 418.400000
6940 14017 7618 1 109.50000 418.400000
6940 14017 8475 1 109.50000 418.400000
7618 14017 8475 1 109.50000 418.400000
4655 14018 7737 1 109.50000 418.400000
4655 14018 8476 1 109.50000 418.400000
4655 14018 8477 1 109.50000 418.400000
7737 14018 8476 1 109.50000 418.400000
7737 14018 8477 1 109.50000 418.400000
8476 14018 8477 1 109.50000 418.400000
5729 14019 8478 1 109.50000 418.400000
5729 14019 8479 1 109.50000 418.400000
5729 14019 8480 1 109.50000 418.400000
8478 14019 8479 1 109.50000 418.400000
8478 14019 8480 1 109.50000 418.400000
8479 14019 8480 1 109.50000 418.400000
5250 14020 6998 1 109.50000 418.400000
5250 14020 8481 1 109.50000 418.400000
5250 14020 8482 1 109.50000 418.400000
6998 14020 8481 1 109.50000 418.400000
6998 14020 8482 1 109.50000 418.400000
8481 14020 8482 1 109.50000 418.400000
2973 14021 3357 1 109.50000 418.400000
2973 14021 3359 1 109.50000 418.400000
2973 14021 8483 1 109.50000 418.400000
3357 14021 3359 1 109.50000 418.400000
3357 14021 8483 1 109.50000 418.400000
3359 14021 8483 1 109.50000 418.400000
4402 14022 5663 1 109.50000 418.400000
4402 14022 8484 1 109.50000 418.400000
4402 14022 8485 1 109.50000 418.400000
5663 14022 8484 1 109.50000 418.400000
5663 14022 8485 1 109.50000 418.400000
8484 14022 8485 1 109.50000 418.400000
3433 14023 8486 1 109.50000 418.400000
3433 14023 8487 1 109.50000 418.400000
3433 14023 8488 1 109.50000 418.400000
8486 14023 8487 1 109.50000 418.400000
8486 14023 8488 1 109.50000 418.400000
8487 14023 8488 1 109.50000 418.400000
3334 14024 8489 1 109.50000 418.400000
3334 14024 8490 1 109.50000 418.400000
3334 14024 8491 1 109.50000 418.400000
8489 14024 8490 1 109.50000 418.400000
8489 14024 8491 1 109.50000 418.400000
8490 14024 8491 1 109.50000 418.400000
5040 14025 7525 1 109.50000 418.400000
5040 14025 8493 1 109.50000 418.400000
5040 14025 8494 1 109.50000 418.400000
7525 14025 8493 1 109.50000 418.400000
7525 14025 8494 1 109.50000 418.400000
8493 14025 8494 1 109.50000 418.400000
4823 14026 7480 1 109.50000 418.400000
4823 14026 8495 1 109.50000 418.400000
4823 14026 8496 1 109.50000 418.400000
7480 14026 8495 1 109.50000 418.400000
7480 14026 8496 1 109.50000 418.400000
8495 14026 8496 1 109.50000 418.400000
7637 14027 8498 1 109.50000 418.400000
7637 14027 8500 1 109.50000 418.400000
7637 14027 10407 1 109.50000 418.400000
8498 14027 8500 1 109.50000 418.400000
8498 14027 10407 1 109.50000 418.400000
8500 14027 10407 1 109.50000 418.400000
7298 14028 8502 1 109.50000 418.400000
7298 14028 8503 1 109.50000 418.400000
7298 14028 8504 1 109.50000 418.400000
8502 14028 8503 1 109.50000 418.400000
8502 14028 8504 1 109.50000 418.400000
8503 14028 8504 1 109.50000 418.400000
3133 14029 3134 1 109.50000 418.400000
3133 14029 3135 1 109.50000 418.400000
3133 14029 5068 1 109.50000 418.400000
3134 14029 3135 1 109.50000 418.400000
3134 14029 5068 1 109.50000 418.400000
3135 14029 5068 1 109.50000 418.400000
3415 14030 8257 1 109.50000 418.400000
3415 14030 8507 1 109.50000 418.400000
3415 14030 10406 1 109.50000 418.400000
8257 14030 8507 1 109.50000 418.400000
8257 14030 10406 1 109.50000 418.400000
8507 14030 10406 1 109.50000 418.400000
3708 14031 8508 1 109.50000 418.400000
3708 14031 8509 1 109.50000 418.400000
3708 14031 8510 1 109.50000 418.400000
8508 14031 8509 1 109.50000 418.400000
8508 14031 8510 1 109.50000 418.400000
8509 14031 8510 1 109.50000 418.400000
898 14032 1403 1 109.50000 418.400000
898 14032 1405 1 109.50000 418.400000
898 14032 8513 1 109.50000 418.400000
1403 14032 1405 1 109.50000 418.400000
1403 14032 8513 1 109.50000 418.400000
1405 14032 8513 1 109.50000 418.400000
2401 14033 8514 1 109.50000 418.400000
2401 14033 8515 1 109.50000 418.400000
2401 14033 8516 1 109.50000 418.400000
8514 14033 8515 1 109.50000 418.400000
8514 14033 8516 1 109.50000 418.400000
8515 14033 8516 1 109.50000 418.400000
447 14034 3811 1 109.50000 418.400000
447 14034 4226 1 109.50000 418.400000
447 14034 8517 1 109.50000 418.400000
3811 14034 4226 1 109.50000 418.400000
3811 14034 8517 1 109.50000 418.400000
4226 14034 8517 1 109.50000 418.400000
975 14035 2445 1 109.50000 418.400000
975 14035 8518 1 109.50000 418.400000
975 14035 11225 1 109.50000 418.400000
2445 14035 8518 1 109.50000 418.400000
2445 14035 11225 1 109.50000 418.400000
8518 14035 11225 1 109.50000 418.400000
3076 14036 8078 1 109.50000 418.400000
3076 14036 8445 1 109.50000 418.400000
3076 14036 8519 1 109.50000 418.400000
8078 14036 8445 1 109.50000 418.400000
8078 14036 8519 1 109.50000 418.400000
8445 14036 8519 1 109.50000 418.400000
3144 14037 8521 1 109.50000 418.400000
3144 14037 8522 1 109.50000 418.400000
3144 14037 10638 1 109.50000 418.400000
8521 14037 8522 1 109.50000 418.400000
8521 14037 10638 1 109.50000 418.400000
8522 14037 10638 1 109.50000 418.400000
259 14038 8163 1 109.50000 418.400000
259 14038 8523 1 109.50000 418.400000
259 14038 8524 1 109.50000 418.400000
8163 14038 8523 1 109.50000 418.400000
8163 14038 8524 1 109.50000 418.400000
8523 14038 8524 1 109.50000 418.400000
235 14039 236 1 109.50000 418.400000
235 14039 237 1 109.50000 418.400000
235 14039 238 1 109.50000 418.400000
236 14039 237 1 109.50000 418.400000
236 14039 238 1 109.50000 418.400000
237 14039 238 1 109.50000 418.400000
6903 14040 8353 1 109.50000 418.400000
6903 14040 8528 1 109.50000 418.400000
6903 14040 8529 1 109.50000 418.400000
8353 14040 8528 1 109.50000 418.400000
8353 14040 8529 1 109.50000 418.400000
8528 14040 8529 1 109.50000 418.400000
683 14041 685 1 109.50000 418.400000
683 14041 8530 1 109.50000 418.400000
683 14041 8531 1 109.50000 418.400000
685 14041 8530 1 109.50000 418.400000
685 14041 8531 1 109.50000 418.400000
8530 14041 8531 1 109.50000 418.400000
1675 14042 8532 1 109.50000 418.400000
1675 14042 8533 1 109.50000 418.400000
1675 14042 8534 1 109.50000 418.400000
8532 14042 8533 1 109.50000 418.400000
8532 14042 8534 1 109.50000 418.400000
8533 14042 8534 1 109.50000 418.400000
4442 14043 8535 1 109.50000 418.400000
4442 14043 8536 1 109.50000 418.400000
4442 14043 8537 1 109.50000 418.400000
8535 14043 8536 1 109.50000 418.400000
8535 14043 8537 1 109.50000 418.400000
8536 14043 8537 1 109.50000 418.400000
1799 14044 8506 1 109.50000 418.400000
1799 14044 8538 1 109.50000 418.400000
1799 14044 8539 1 109.50000 418.400000
8506 14044 8538 1 109.50000 418.400000
8506 14044 8539 1 109.50000 418.400000
8538 14044 8539 1 109.50000 418.400000
1087 14045 8540 1 109.50000 418.400000
1087 14045 8541 1 109.50000 418.400000
1087 14045 8542 1 109.50000 418.400000
8540 14045 8541 1 109.50000 418.400000
8540 14045 8542 1 109.50000 418.400000
8541 14045 8542 1 109.50000 418.400000
567 14046 8543 1 109.50000 418.400000
567 14046 8544 1 109.50000 418.400000
567 14046 8545 1 109.50000 418.400000
8543 14046 8544 1 109.50000 418.400000
8543 14046 8545 1 109.50000 418.400000
8544 14046 8545 1 109.50000 418.400000
421 14047 4011 1 109.50000 418.400000
421 14047 8343 1 109.50000 418.400000
421 14047 8546 1 109.50000 418.400000
4011 14047 8343 1 109.50000 418.400000
4011 14047 8546 1 109.50000 418.400000
8343 14047 8546 1 109.50000 418.400000
4212 14048 8547 1 109.50000 418.400000
4212 14048 8548 1 109.50000 418.400000
4212 14048 8549 1 109.50000 418.400000
8547 14048 8548 1 109.50000 418.400000
8547 14048 8549 1 109.50000 418.400000
8548 14048 8549 1 109.50000 418.400000
565 14049 8551 1 109.50000 418.400000
565 14049 8552 1 109.50000 418.400000
565 14049 8553 1 109.50000 418.400000
8551 14049 8552 1 109.50000 418.400000
8551 14049 8553 1 109.50000 418.400000
8552 14049 8553 1 109.50000 418.400000
1948 14050 6145 1 109.50000 418.400000
1948 14050 6146 1 109.50000 418.400000
1948 14050 6147 1 109.50000 418.400000
6145 14050 6146 1 109.50000 418.400000
6145 14050 6147 1 109.50000 418.400000
6146 14050 6147 1 109.50000 418.400000
7075 14051 7999 1 109.50000 418.400000
7075 14051 8554 1 109.50000 418.400000
7075 14051 8555 1 109.50000 418.400000
7999 14051 8554 1 109.50000 418.400000
7999 14051 8555 1 109.50000 418.400000
8554 14051 8555 1 109.50000 418.400000
6370 14052 8007 1 109.50000 418.400000
6370 14052 8556 1 109.50000 418.400000
6370 14052 8557 1 109.50000 418.400000
8007 14052 8556 1 109.50000 418.400000
8007 14052 8557 1 109.50000 418.400000
8556 14052 8557 1 109.50000 418.400000
4453 14053 4712 1 109.50000 418.400000
4453 14053 8558 1 109.50000 418.400000
4453 14053 8559 1 109.50000 418.400000
4712 14053 8558 1 109.50000 418.400000
4712 14053 8559 1 109.50000 418.400000
8558 14053 8559 1 109.50000 418.400000
5758 14054 8338 1 109.50000 418.400000
5758 14054 8560 1 109.50000 418.400000
5758 14054 8561 1 109.50000 418.400000
8338 14054 8560 1 109.50000 418.400000
8338 14054 8561 1 109.50000 418.400000
8560 14054 8561 1 109.50000 418.400000
2512 14055 7876 1 109.50000 418.400000
2512 14055 8414 1 109.50000 418.400000
2512 14055 8563 1 109.50000 418.400000
7876 14055 8414 1 109.50000 418.400000
7876 14055 8563 1 109.50000 418.400000
8414 14055 8563 1 109.50000 418.400000
192 14056 6424 1 109.50000 418.400000
192 14056 8564 1 109.50000 418.400000
192 14056 8565 1 109.50000 418.400000
6424 14056 8564 1 109.50000 418.400000
6424 14056 8565 1 109.50000 418.400000
8564 14056 8565 1 109.50000 418.400000
705 14057 6707 1 109.50000 418.400000
705 14057 6769 1 109.50000 418.400000
705 14057 8566 1 109.50000 418.400000
6707 14057 6769 1 109.50000 418.400000
6707 14057 8566 1 109.50000 418.400000
6769 14057 8566 1 109.50000 418.400000
1883 14058 5101 1 109.50000 418.400000
1883 14058 8171 1 109.50000 418.400000
1883 14058 8567 1 109.50000 418.400000
5101 14058 8171 1 109.50000 418.400000
5101 14058 8567 1 109.50000 418.400000
8171 14058 8567 1 109.50000 418.400000
5752 14059 6385 1 109.50000 418.400000
5752 14059 8568 1 109.50000 418.400000
5752 14059 8569 1 109.50000 418.400000
6385 14059 8568 1 109.50000 418.400000
6385 14059 8569 1 109.50000 418.400000
8568 14059 8569 1 109.50000 418.400000
5541 14060 8570 1 109.50000 418.400000
5541 14060 8571 1 109.50000 418.400000
5541 14060 8572 1 109.50000 418.400000
8570 14060 8571 1 109.50000 418.400000
8570 14060 8572 1 109.50000 418.400000
8571 14060 8572 1 109.50000 418.400000
642 14061 4906 1 109.50000 418.400000
642 14061 7467 1 109.50000 418.400000
642 14061 8100 1 109.50000 418.400000
4906 14061 7467 1 109.50000 418.400000
4906 14061 8100 1 109.50000 418.400000
7467 14061 8100 1 109.50000 418.400000
2530 14062 4395 1 109.50000 418.400000
2530 14062 8318 1 109.50000 418.400000
2530 14062 8575 1 109.50000 418.400000
4395 14062 8318 1 109.50000 418.400000
4395 14062 8575 1 109.50000 418.400000
8318 14062 8575 1 109.50000 418.400000
8576 14063 8577 1 109.50000 418.400000
8576 14063 8578 1 109.50000 418.400000
8576 14063 8579 1 109.50000 418.400000
8577 14063 8578 1 109.50000 418.400000
8577 14063 8579 1 109.50000 418.400000
8578 14063 8579 1 109.50000 418.400000
1545 14064 7839 1 109.50000 418.400000
1545 14064 8580 1 109.50000 418.400000
1545 14064 8581 1 109.50000 418.400000
7839 14064 8580 1 109.50000 418.400000
7839 14064 8581 1 109.50000 418.400000
8580 14064 8581 1 109.50000 418.400000
2306 14065 5192 1 109.50000 418.400000
2306 14065 6231 1 109.50000 418.400000
2306 14065 8582 1 109.50000 418.400000
5192 14065 6231 1 109.50000 418.400000
5192 14065 8582 1 109.50000 418.400000
6231 14065 8582 1 109.50000 418.400000
8583 14066 8584 1 109.50000 418.400000
8583 14066 8585 1 109.50000 418.400000
8583 14066 10727 1 109.50000 418.400000
8584 14066 8585 1 109.50000 418.400000
8584 14066 10727 1 109.50000 418.400000
8585 14066 10727 1 109.50000 418.400000
5568 14067 6462 1 109.50000 418.400000
5568 14067 8586 1 109.50000 418.400000
5568 14067 8587 1 109.50000 418.400000
6462 14067 8586 1 109.50000 418.400000
6462 14067 8587 1 109.50000 418.400000
8586 14067 8587 1 109.50000 418.400000
798 14068 4736 1 109.50000 418.400000
798 14068 8588 1 109.50000 418.400000
798 14068 8589 1 109.50000 418.400000
4736 14068 8588 1 109.50000 418.400000
4736 14068 8589 1 109.50000 418.400000
8588 14068 8589 1 109.50000 418.400000
1371 14069 8590 1 109.50000 418.400000
1371 14069 8591 1 109.50000 418.400000
1371 14069 8592 1 109.50000 418.400000
8590 14069 8591 1 109.50000 418.400000
8590 14069 8592 1 109.50000 418.400000
8591 14069 8592 1 109.50000 418.400000
5445 14070 5446 1 109.50000 418.400000
5445 14070 8594 1 109.50000 418.400000
5445 14070 8595 1 109.50000 418.400000
5446 14070 8594 1 109.50000 418.400000
5446 14070 8595 1 109.50000 418.400000
8594 14070 8595 1 109.50000 418.400000
273 14071 8596 1 109.50000 418.400000
273 14071 8597 1 109.50000 418.400000
273 14071 8598 1 109.50000 418.400000
8596 14071 8597 1 109.50000 418.400000
8596 14071 8598 1 109.50000 418.400000
8597 14071 8598 1 109.50000 418.400000
8068 14072 8599 1 109.50000 418.400000
8068 14072 8600 1 109.50000 418.400000
8068 14072 8601 1 109.50000 418.400000
8599 14072 8600 1 109.50000 418.400000
8599 14072 8601 1 109.50000 418.400000
8600 14072 8601 1 109.50000 418.400000
7823 14073 8244 1 109.50000 418.400000
7823 14073 8602 1 109.50000 418.400000
7823 14073 8603 1 109.50000 418.400000
8244 14073 8602 1 109.50000 418.400000
8244 14073 8603 1 109.50000 418.400000
8602 14073 8603 1 109.50000 418.400000
2359 14074 3926 1 109.50000 418.400000
2359 14074 6933 1 109.50000 418.400000
2359 14074 8125 1 109.50000 418.400000
3926 14074 6933 1 109.50000 418.400000
3926 14074 8125 1 109.50000 418.400000
6933 14074 8125 1 109.50000 418.400000
1249 14075 5587 1 109.50000 418.400000
1249 14075 6876 1 109.50000 418.400000
1249 14075 8604 1 109.50000 418.400000
5587 14075 6876 1 109.50000 418.400000
5587 14075 8604 1 109.50000 418.400000
6876 14075 8604 1 109.50000 418.400000
8605 14076 8606 1 109.50000 418.400000
8605 14076 8607 1 109.50000 418.400000
8605 14076 8608 1 109.50000 418.400000
8606 14076 8607 1 109.50000 418.400000
8606 14076 8608 1 109.50000 418.400000
8607 14076 8608 1 109.50000 418.400000
169 14077 7251 1 109.50000 418.400000
169 14077 7252 1 109.50000 418.400000
169 14077 8609 1 109.50000 418.400000
7251 14077 7252 1 109.50000 418.400000
7251 14077 8609 1 109.50000 418.400000
7252 14077 8609 1 109.50000 418.400000
1911 14078 1912 1 109.50000 418.400000
1911 14078 8610 1 109.50000 418.400000
1911 14078 8611 1 109.50000 418.400000
1912 14078 8610 1 109.50000 418.400000
1912 14078 8611 1 109.50000 418.400000
8610 14078 8611 1 109.50000 418.400000
6155 14079 7907 1 109.50000 418.400000
6155 14079 8613 1 109.50000 418.400000
6155 14079 8614 1 109.50000 418.400000
7907 14079 8613 1 109.50000 418.400000
7907 14079 8614 1 109.50000 418.400000
8613 14079 8614 1 109.50000 418.400000
6228 14080 8041 1 109.50000 418.400000
6228 14080 8615 1 109.50000 418.400000
6228 14080 8616 1 109.50000 418.400000
8041 14080 8615 1 109.50000 418.400000
8041 14080 8616 1 109.50000 418.400000
8615 14080 8616 1 109.50000 418.400000
5526 14081 8555 1 109.50000 418.400000
5526 14081 8619 1 109.50000 418.400000
5526 14081 8620 1 109.50000 418.400000
8555 14081 8619 1 109.50000 418.400000
8555 14081 8620 1 109.50000 418.400000
8619 14081 8620 1 109.50000 418.400000
671 14082 673 1 109.50000 418.400000
671 14082 8623 1 109.50000 418.400000
671 14082 8624 1 109.50000 418.400000
673 14082 8623 1 109.50000 418.400000
673 14082 8624 1 109.50000 418.400000
8623 14082 8624 1 109.50000 418.400000
1089 14083 1175 1 109.50000 418.400000
1089 14083 4769 1 109.50000 418.400000
1089 14083 8625 1 109.50000 418.400000
1175 14083 4769 1 109.50000 418.400000
1175 14083 8625 1 109.50000 418.400000
4769 14083 8625 1 109.50000 418.400000
8626 14084 8627 1 109.50000 418.400000
8626 14084 8628 1 109.50000 418.400000
8626 14084 8629 1 109.50000 418.400000
8627 14084 8628 1 109.50000 418.400000
8627 14084 8629 1 109.50000 418.400000
8628 14084 8629 1 109.50000 418.400000
5249 14085 6101 1 109.50000 418.400000
5249 14085 6759 1 109.50000 418.400000
5249 14085 8630 1 109.50000 418.400000
6101 14085 6759 1 109.50000 418.400000
6101 14085 8630 1 109.50000 418.400000
6759 14085 8630 1 109.50000 418.400000
6154 14086 8631 1 109.50000 418.400000
6154 14086 8632 1 109.50000 418.400000
6154 14086 8633 1 109.50000 418.400000
8631 14086 8632 1 109.50000 418.400000
8631 14086 8633 1 109.50000 418.400000
8632 14086 8633 1 109.50000 418.400000
2753 14087 3208 1 109.50000 418.400000
2753 14087 5620 1 109.50000 418.400000
2753 14087 8639 1 109.50000 418.400000
3208 14087 5620 1 109.50000 418.400000
3208 14087 8639 1 109.50000 418.400000
5620 14087 8639 1 109.50000 418.400000
1431 14088 3863 1 109.50000 418.400000
1431 14088 8640 1 109.50000 418.400000
1431 14088 10134 1 109.50000 418.400000
3863 14088 8640 1 109.50000 418.400000
3863 14088 10134 1 109.50000 418.400000
8640 14088 10134 1 109.50000 418.400000
1885 14089 5835 1 109.50000 418.400000
1885 14089 8641 1 109.50000 418.400000
1885 14089 8642 1 109.50000 418.400000
5835 14089 8641 1 109.50000 418.400000
5835 14089 8642 1 109.50000 418.400000
8641 14089 8642 1 109.50000 418.400000
1953 14090 7589 1 109.50000 418.400000
1953 14090 8643 1 109.50000 418.400000
1953 14090 8644 1 109.50000 418.400000
7589 14090 8643 1 109.50000 418.400000
7589 14090 8644 1 109.50000 418.400000
8643 14090 8644 1 109.50000 418.400000
3541 14091 4399 1 109.50000 418.400000
3541 14091 8645 1 109.50000 418.400000
3541 14091 8646 1 109.50000 418.400000
4399 14091 8645 1 109.50000 418.400000
4399 14091 8646 1 109.50000 418.400000
8645 14091 8646 1 109.50000 418.400000
1599 14092 1771 1 109.50000 418.400000
1599 14092 8649 1 109.50000 418.400000
1599 14092 8650 1 109.50000 418.400000
1771 14092 8649 1 109.50000 418.400000
1771 14092 8650 1 109.50000 418.400000
8649 14092 8650 1 109.50000 418.400000
1353 14093 5796 1 109.50000 418.400000
1353 14093 7943 1 109.50000 418.400000
1353 14093 8651 1 109.50000 418.400000
5796 14093 7943 1 109.50000 418.400000
5796 14093 8651 1 109.50000 418.400000
7943 14093 8651 1 109.50000 418.400000
3022 14094 4984 1 109.50000 418.400000
3022 14094 8386 1 109.50000 418.400000
3022 14094 8652 1 109.50000 418.400000
4984 14094 8386 1 109.50000 418.400000
4984 14094 8652 1 109.50000 418.400000
8386 14094 8652 1 109.50000 418.400000
2079 14095 3092 1 109.50000 418.400000
2079 14095 8653 1 109.50000 418.400000
2079 14095 8654 1 109.50000 418.400000
3092 14095 8653 1 109.50000 418.400000
3092 14095 8654 1 109.50000 418.400000
8653 14095 8654 1 109.50000 418.400000
2423 14096 5314 1 109.50000 418.400000
2423 14096 8655 1 109.50000 418.400000
2423 14096 8656 1 109.50000 418.400000
5314 14096 8655 1 109.50000 418.400000
5314 14096 8656 1 109.50000 418.400000
8655 14096 8656 1 109.50000 418.400000
6224 14097 8657 1 109.50000 418.400000
6224 14097 8658 1 109.50000 418.400000
6224 14097 11146 1 109.50000 418.400000
8657 14097 8658 1 109.50000 418.400000
8657 14097 11146 1 109.50000 418.400000
8658 14097 11146 1 109.50000 418.400000
349 14098 4436 1 109.50000 418.400000
349 14098 8231 1 109.50000 418.400000
349 14098 8659 1 109.50000 418.400000
4436 14098 8231 1 109.50000 418.400000
4436 14098 8659 1 109.50000 418.400000
8231 14098 8659 1 109.50000 418.400000
3226 14099 6832 1 109.50000 418.400000
3226 14099 8660 1 109.50000 418.400000
3226 14099 8661 1 109.50000 418.400000
6832 14099 8660 1 109.50000 418.400000
6832 14099 8661 1 109.50000 418.400000
8660 14099 8661 1 109.50000 418.400000
8662 14100 8663 1 109.50000 418.400000
8662 14100 8664 1 109.50000 418.400000
8662 14100 8665 1 109.50000 418.400000
8663 14100 8664 1 109.50000 418.400000
8663 14100 8665 1 109.50000 418.400000
8664 14100 8665 1 109.50000 418.400000
2810 14101 7035 1 109.50000 418.400000
2810 14101 8668 1 109.50000 418.400000
2810 14101 10862 1 109.50000 418.400000
7035 14101 8668 1 109.50000 418.400000
7035 14101 10862 1 109.50000 418.400000
8668 14101 10862 1 109.50000 418.400000
2931 14102 4113 1 109.50000 418.400000
2931 14102 7501 1 109.50000 418.400000
2931 14102 8669 1 109.50000 418.400000
4113 14102 7501 1 109.50000 418.400000
4113 14102 8669 1 109.50000 418.400000
7501 14102 8669 1 109.50000 418.400000
771 14103 4490 1 109.50000 418.400000
771 14103 8670 1 109.50000 418.400000
771 14103 8671 1 109.50000 418.400000
4490 14103 8670 1 109.50000 418.400000
4490 14103 8671 1 109.50000 418.400000
8670 14103 8671 1 109.50000 418.400000
2387 14104 4945 1 109.50000 418.400000
2387 14104 5421 1 109.50000 418.400000
2387 14104 8484 1 109.50000 418.400000
4945 14104 5421 1 109.50000 418.400000
4945 14104 8484 1 109.50000 418.400000
5421 14104 8484 1 109.50000 418.400000
2137 14105 2853 1 109.50000 418.400000
2137 14105 8673 1 109.50000 418.400000
2137 14105 8674 1 109.50000 418.400000
2853 14105 8673 1 109.50000 418.400000
2853 14105 8674 1 109.50000 418.400000
8673 14105 8674 1 109.50000 418.400000
832 14106 8476 1 109.50000 418.400000
832 14106 8528 1 109.50000 418.400000
832 14106 8628 1 109.50000 418.400000
8476 14106 8528 1 109.50000 418.400000
8476 14106 8628 1 109.50000 418.400000
8528 14106 8628 1 109.50000 418.400000
7612 14107 8675 1 109.50000 418.400000
7612 14107 8676 1 109.50000 418.400000
7612 14107 8677 1 109.50000 418.400000
8675 14107 8676 1 109.50000 418.400000
8675 14107 8677 1 109.50000 418.400000
8676 14107 8677 1 109.50000 418.400000
2856 14108 6536 1 109.50000 418.400000
2856 14108 8594 1 109.50000 418.400000
2856 14108 8678 1 109.50000 418.400000
6536 14108 8594 1 109.50000 418.400000
6536 14108 8678 1 109.50000 418.400000
8594 14108 8678 1 109.50000 418.400000
1506 14109 2943 1 109.50000 418.400000
1506 14109 8680 1 109.50000 418.400000
1506 14109 10884 1 109.50000 418.400000
2943 14109 8680 1 109.50000 418.400000
2943 14109 10884 1 109.50000 418.400000
8680 14109 10884 1 109.50000 418.400000
8681 14110 8682 1 109.50000 418.400000
8681 14110 8683 1 109.50000 418.400000
8681 14110 8684 1 109.50000 418.400000
8682 14110 8683 1 109.50000 418.400000
8682 14110 8684 1 109.50000 418.400000
8683 14110 8684 1 109.50000 418.400000
5028 14111 5781 1 109.50000 418.400000
5028 14111 5932 1 109.50000 418.400000
5028 14111 8685 1 109.50000 418.400000
5781 14111 5932 1 109.50000 418.400000
5781 14111 8685 1 109.50000 418.400000
5932 14111 8685 1 109.50000 418.400000
6935 14112 8686 1 109.50000 418.400000
6935 14112 8687 1 109.50000 418.400000
6935 14112 9384 1 109.50000 418.400000
8686 14112 8687 1 109.50000 418.400000
8686 14112 9384 1 109.50000 418.400000
8687 14112 9384 1 109.50000 418.400000
37 14113 5203 1 109.50000 418.400000
37 14113 8688 1 109.50000 418.400000
37 14113 8689 1 109.50000 418.400000
5203 14113 8688 1 109.50000 418.400000
5203 14113 8689 1 109.50000 418.400000
8688 14113 8689 1 109.50000 418.400000
1832 14114 7406 1 109.50000 418.400000
1832 14114 7799 1 109.50000 418.400000
1832 14114 8690 1 109.50000 418.400000
7406 14114 7799 1 109.50000 418.400000
7406 14114 8690 1 109.50000 418.400000
7799 14114 8690 1 109.50000 418.400000
8691 14115 8692 1 109.50000 418.400000
8691 14115 8693 1 109.50000 418.400000
8691 14115 8694 1 109.50000 418.400000
8692 14115 8693 1 109.50000 418.400000
8692 14115 8694 1 109.50000 418.400000
8693 14115 8694 1 109.50000 418.400000
747 14116 7297 1 109.50000 418.400000
747 14116 8211 1 109.50000 418.400000
747 14116 8695 1 109.50000 418.400000
7297 14116 8211 1 109.50000 418.400000
7297 14116 8695 1 109.50000 418.400000
8211 14116 8695 1 109.50000 418.400000
3833 14117 5545 1 109.50000 418.400000
3833 14117 8696 1 109.50000 418.400000
3833 14117 9940 1 109.50000 418.400000
5545 14117 8696 1 109.50000 418.400000
5545 14117 9940 1 109.50000 418.400000
8696 14117 9940 1 109.50000 418.400000
5304 14118 6528 1 109.50000 418.400000
5304 14118 7394 1 109.50000 418.400000
5304 14118 8697 1 109.50000 418.400000
6528 14118 7394 1 109.50000 418.400000
6528 14118 8697 1 109.50000 418.400000
7394 14118 8697 1 109.50000 418.400000
402 14119 6739 1 109.50000 418.400000
402 14119 8698 1 109.50000 418.400000
402 14119 8699 1 109.50000 418.400000
6739 14119 8698 1 109.50000 418.400000
6739 14119 8699 1 109.50000 418.400000
8698 14119 8699 1 109.50000 418.400000
6600 14120 8700 1 109.50000 418.400000
6600 14120 8701 1 109.50000 418.400000
6600 14120 11197 1 109.50000 418.400000
8700 14120 8701 1 109.50000 418.400000
8700 14120 11197 1 109.50000 418.400000
8701 14120 11197 1 109.50000 418.400000
649 14121 1639 1 109.50000 418.400000
649 14121 8702 1 109.50000 418.400000
649 14121 8703 1 109.50000 418.400000
1639 14121 8702 1 109.50000 418.400000
1639 14121 8703 1 109.50000 418.400000
8702 14121 8703 1 109.50000 418.400000
1798 14122 6143 1 109.50000 418.400000
1798 14122 8704 1 109.50000 418.400000
1798 14122 8705 1 109.50000 418.400000
6143 14122 8704 1 109.50000 418.400000
6143 14122 8705 1 109.50000 418.400000
8704 14122 8705 1 109.50000 418.400000
3482 14123 3579 1 109.50000 418.400000
3482 14123 8504 1 109.50000 418.400000
3482 14123 8706 1 109.50000 418.400000
3579 14123 8504 1 109.50000 418.400000
3579 14123 8706 1 109.50000 418.400000
8504 14123 8706 1 109.50000 418.400000
1398 14124 3999 1 109.50000 418.400000
1398 14124 6183 1 109.50000 418.400000
1398 14124 7603 1 109.50000 418.400000
3999 14124 6183 1 109.50000 418.400000
3999 14124 7603 1 109.50000 418.400000
6183 14124 7603 1 109.50000 418.400000
4249 14125 8707 1 109.50000 418.400000
4249 14125 8708 1 109.50000 418.400000
4249 14125 8709 1 109.50000 418.400000
8707 14125 8708 1 109.50000 418.400000
8707 14125 8709 1 109.50000 418.400000
8708 14125 8709 1 109.50000 418.400000
7706 14126 7905 1 109.50000 418.400000
7706 14126 8710 1 109.50000 418.400000
7706 14126 8711 1 109.50000 418.400000
7905 14126 8710 1 109.50000 418.400000
7905 14126 8711 1 109.50000 418.400000
8710 14126 8711 1 109.50000 418.400000
3113 14127 4742 1 109.50000 418.400000
3113 14127 7215 1 109.50000 418.400000
3113 14127 8712 1 109.50000 418.400000
4742 14127 7215 1 109.50000 418.400000
4742 14127 8712 1 109.50000 418.400000
7215 14127 8712 1 109.50000 418.400000
20 14128 1035 1 109.50000 418.400000
20 14128 8713 1 109.50000 418.400000
20 14128 8714 1 109.50000 418.400000
1035 14128 8713 1 109.50000 418.400000
1035 14128 8714 1 109.50000 418.400000
8713 14128 8714 1 109.50000 418.400000
2874 14129 6910 1 109.50000 418.400000
2874 14129 7025 1 109.50000 418.400000
2874 14129 8715 1 109.50000 418.400000
6910 14129 7025 1 109.50000 418.400000
6910 14129 8715 1 109.50000 418.400000
7025 14129 8715 1 109.50000 418.400000
3118 14130 8716 1 109.50000 418.400000
3118 14130 8717 1 109.50000 418.400000
3118 14130 8718 1 109.50000 418.400000
8716 14130 8717 1 109.50000 418.400000
8716 14130 8718 1 109.50000 418.400000
8717 14130 8718 1 109.50000 418.400000
706 14131 5985 1 109.50000 418.400000
706 14131 8719 1 109.50000 418.400000
706 14131 8720 1 109.50000 418.400000
5985 14131 8719 1 109.50000 418.400000
5985 14131 8720 1 109.50000 418.400000
8719 14131 8720 1 109.50000 418.400000
381 14132 5281 1 109.50000 418.400000
381 14132 8721 1 109.50000 418.400000
381 14132 8722 1 109.50000 418.400000
5281 14132 8721 1 109.50000 418.400000
5281 14132 8722 1 109.50000 418.400000
8721 14132 8722 1 109.50000 418.400000
2622 14133 8723 1 109.50000 418.400000
2622 14133 8724 1 109.50000 418.400000
2622 14133 8725 1 109.50000 418.400000
8723 14133 8724 1 109.50000 418.400000
8723 14133 8725 1 109.50000 418.400000
8724 14133 8725 1 109.50000 418.400000
2936 14134 8227 1 109.50000 418.400000
2936 14134 8726 1 109.50000 418.400000
2936 14134 8727 1 109.50000 418.400000
8227 14134 8726 1 109.50000 418.400000
8227 14134 8727 1 109.50000 418.400000
8726 14134 8727 1 109.50000 418.400000
3641 14135 8728 1 109.50000 418.400000
3641 14135 8729 1 109.50000 418.400000
3641 14135 8730 1 109.50000 418.400000
8728 14135 8729 1 109.50000 418.400000
8728 14135 8730 1 109.50000 418.400000
8729 14135 8730 1 109.50000 418.400000
3518 14136 8731 1 109.50000 418.400000
3518 14136 8732 1 109.50000 418.400000
3518 14136 11238 1 109.50000 418.400000
8731 14136 8732 1 109.50000 418.400000
8731 14136 11238 1 109.50000 418.400000
8732 14136 11238 1 109.50000 418.400000
1814 14137 7104 1 109.50000 418.400000
1814 14137 8287 1 109.50000 418.400000
1814 14137 8733 1 109.50000 418.400000
7104 14137 8287 1 109.50000 418.400000
7104 14137 8733 1 109.50000 418.400000
8287 14137 8733 1 109.50000 418.400000
967 14138 6867 1 109.50000 418.400000
967 14138 6869 1 109.50000 418.400000
967 14138 8734 1 109.50000 418.400000
6867 14138 6869 1 109.50000 418.400000
6867 14138 8734 1 109.50000 418.400000
6869 14138 8734 1 109.50000 418.400000
2655 14139 2844 1 109.50000 418.400000
2655 14139 8579 1 109.50000 418.400000
2655 14139 8736 1 109.50000 418.400000
2844 14139 8579 1 109.50000 418.400000
2844 14139 8736 1 109.50000 418.400000
8579 14139 8736 1 109.50000 418.400000
411 14140 7570 1 109.50000 418.400000
411 14140 7571 1 109.50000 418.400000
411 14140 8737 1 109.50000 418.400000
7570 14140 7571 1 109.50000 418.400000
7570 14140 8737 1 109.50000 418.400000
7571 14140 8737 1 109.50000 418.400000
7511 14141 8738 1 109.50000 418.400000
7511 14141 8739 1 109.50000 418.400000
7511 14141 8740 1 109.50000 418.400000
8738 14141 8739 1 109.50000 418.400000
8738 14141 8740 1 109.50000 418.400000
8739 14141 8740 1 109.50000 418.400000
5110 14142 7513 1 109.50000 418.400000
5110 14142 7514 1 109.50000 418.400000
5110 14142 8741 1 109.50000 418.400000
7513 14142 7514 1 109.50000 418.400000
7513 14142 8741 1 109.50000 418.400000
7514 14142 8741 1 109.50000 418.400000
3764 14143 7088 1 109.50000 418.400000
3764 14143 8742 1 109.50000 418.400000
3764 14143 8743 1 109.50000 418.400000
7088 14143 8742 1 109.50000 418.400000
7088 14143 8743 1 109.50000 418.400000
8742 14143 8743 1 109.50000 418.400000
486 14144 7797 1 109.50000 418.400000
486 14144 8744 1 109.50000 418.400000
486 14144 8745 1 109.50000 418.400000
7797 14144 8744 1 109.50000 418.400000
7797 14144 8745 1 109.50000 418.400000
8744 14144 8745 1 109.50000 418.400000
3397 14145 8419 1 109.50000 418.400000
3397 14145 8746 1 109.50000 418.400000
3397 14145 10677 1 109.50000 418.400000
8419 14145 8746 1 109.50000 418.400000
8419 14145 10677 1 109.50000 418.400000
8746 14145 10677 1 109.50000 418.400000
653 14146 3264 1 109.50000 418.400000
653 14146 7669 1 109.50000 418.400000
653 14146 8711 1 109.50000 418.400000
3264 14146 7669 1 109.50000 418.400000
3264 14146 8711 1 109.50000 418.400000
7669 14146 8711 1 109.50000 418.400000
2674 14147 8747 1 109.50000 418.400000
2674 14147 8748 1 109.50000 418.400000
2674 14147 8749 1 109.50000 418.400000
8747 14147 8748 1 109.50000 418.400000
8747 14147 8749 1 109.50000 418.400000
8748 14147 8749 1 109.50000 418.400000
618 14148 3405 1 109.50000 418.400000
618 14148 4704 1 109.50000 418.400000
618 14148 8750 1 109.50000 418.400000
3405 14148 4704 1 109.50000 418.400000
3405 14148 8750 1 109.50000 418.400000
4704 14148 8750 1 109.50000 418.400000
2391 14149 4154 1 109.50000 418.400000
2391 14149 4731 1 109.50000 418.400000
2391 14149 8751 1 109.50000 418.400000
4154 14149 4731 1 109.50000 418.400000
4154 14149 8751 1 109.50000 418.400000
4731 14149 8751 1 109.50000 418.400000
2061 14150 4164 1 109.50000 418.400000
2061 14150 8752 1 109.50000 418.400000
2061 14150 8753 1 109.50000 418.400000
4164 14150 8752 1 109.50000 418.400000
4164 14150 8753 1 109.50000 418.400000
8752 14150 8753 1 109.50000 418.400000
5650 14151 8754 1 109.50000 418.400000
5650 14151 8755 1 109.50000 418.400000
5650 14151 8756 1 109.50000 418.400000
8754 14151 8755 1 109.50000 418.400000
8754 14151 8756 1 109.50000 418.400000
8755 14151 8756 1 109.50000 418.400000
2772 14152 6264 1 109.50000 418.400000
2772 14152 6709 1 109.50000 418.400000
2772 14152 6946 1 109.50000 418.400000
6264 14152 6709 1 109.50000 418.400000
6264 14152 6946 1 109.50000 418.400000
6709 14152 6946 1 109.50000 418.400000
4563 14153 5495 1 109.50000 418.400000
4563 14153 8752 1 109.50000 418.400000
4563 14153 8757 1 109.50000 418.400000
5495 14153 8752 1 109.50000 418.400000
5495 14153 8757 1 109.50000 418.400000
8752 14153 8757 1 109.50000 418.400000
1280 14154 2321 1 109.50000 418.400000
1280 14154 8758 1 109.50000 418.400000
1280 14154 8759 1 109.50000 418.400000
2321 14154 8758 1 109.50000 418.400000
2321 14154 8759 1 109.50000 418.400000
8758 14154 8759 1 109.50000 418.400000
2009 14155 5572 1 109.50000 418.400000
2009 14155 6924 1 109.50000 418.400000
2009 14155 11279 1 109.50000 418.400000
5572 14155 6924 1 109.50000 418.400000
5572 14155 11279 1 109.50000 418.400000
6924 14155 11279 1 109.50000 418.400000
1486 14156 3674 1 109.50000 418.400000
1486 14156 8031 1 109.50000 418.400000
1486 14156 8762 1 109.50000 418.400000
3674 14156 8031 1 109.50000 418.400000
3674 14156 8762 1 109.50000 418.400000
8031 14156 8762 1 109.50000 418.400000
1469 14157 7938 1 109.50000 418.400000
1469 14157 8545 1 109.50000 418.400000
1469 14157 8763 1 109.50000 418.400000
7938 14157 8545 1 109.50000 418.400000
7938 14157 8763 1 109.50000 418.400000
8545 14157 8763 1 109.50000 418.400000
7496 14158 8175 1 109.50000 418.400000
7496 14158 8764 1 109.50000 418.400000
7496 14158 8765 1 109.50000 418.400000
8175 14158 8764 1 109.50000 418.400000
8175 14158 8765 1 109.50000 418.400000
8764 14158 8765 1 109.50000 418.400000
6458 14159 6893 1 109.50000 418.400000
6458 14159 8766 1 109.50000 418.400000
6458 14159 8767 1 109.50000 418.400000
6893 14159 8766 1 109.50000 418.400000
6893 14159 8767 1 109.50000 418.400000
8766 14159 8767 1 109.50000 418.400000
4397 14160 4461 1 109.50000 418.400000
4397 14160 8768 1 109.50000 418.400000
4397 14160 8769 1 109.50000 418.400000
4461 14160 8768 1 109.50000 418.400000
4461 14160 8769 1 109.50000 418.400000
8768 14160 8769 1 109.50000 418.400000
6048 14161 6550 1 109.50000 418.400000
6048 14161 8770 1 109.50000 418.400000
6048 14161 8771 1 109.50000 418.400000
6550 14161 8770 1 109.50000 418.400000
6550 14161 8771 1 109.50000 418.400000
8770 14161 8771 1 109.50000 418.400000
318 14162 4157 1 109.50000 418.400000
318 14162 6701 1 109.50000 418.400000
318 14162 8747 1 109.50000 418.400000
4157 14162 6701 1 109.50000 418.400000
4157 14162 8747 1 109.50000 418.400000
6701 14162 8747 1 109.50000 418.400000
5284 14163 5492 1 109.50000 418.400000
5284 14163 8764 1 109.50000 418.400000
5284 14163 8772 1 109.50000 418.400000
5492 14163 8764 1 109.50000 418.400000
5492 14163 8772 1 109.50000 418.400000
8764 14163 8772 1 109.50000 418.400000
2187 14164 4069 1 109.50000 418.400000
2187 14164 8773 1 109.50000 418.400000
2187 14164 8774 1 109.50000 418.400000
4069 14164 8773 1 109.50000 418.400000
4069 14164 8774 1 109.50000 418.400000
8773 14164 8774 1 109.50000 418.400000
33 14165 1850 1 109.50000 418.400000
33 14165 8775 1 109.50000 418.400000
33 14165 8776 1 109.50000 418.400000
1850 14165 8775 1 109.50000 418.400000
1850 14165 8776 1 109.50000 418.400000
8775 14165 8776 1 109.50000 418.400000
1879 14166 7414 1 109.50000 418.400000
1879 14166 8778 1 109.50000 418.400000
1879 14166 8779 1 109.50000 418.400000
7414 14166 8778 1 109.50000 418.400000
7414 14166 8779 1 109.50000 418.400000
8778 14166 8779 1 109.50000 418.400000
2786 14167 8780 1 109.50000 418.400000
2786 14167 8781 1 109.50000 418.400000
2786 14167 8782 1 109.50000 418.400000
8780 14167 8781 1 109.50000 418.400000
8780 14167 8782 1 109.50000 418.400000
8781 14167 8782 1 109.50000 418.400000
429 14168 5607 1 109.50000 418.400000
429 14168 8783 1 109.50000 418.400000
429 14168 8784 1 109.50000 418.400000
5607 14168 8783 1 109.50000 418.400000
5607 14168 8784 1 109.50000 418.400000
8783 14168 8784 1 109.50000 418.400000
3006 14169 5305 1 109.50000 418.400000
3006 14169 6641 1 109.50000 418.400000
3006 14169 8785 1 109.50000 418.400000
5305 14169 6641 1 109.50000 418.400000
5305 14169 8785 1 109.50000 418.400000
6641 14169 8785 1 109.50000 418.400000
3067 14170 5005 1 109.50000 418.400000
3067 14170 8786 1 109.50000 418.400000
3067 14170 8787 1 109.50000 418.400000
5005 14170 8786 1 109.50000 418.400000
5005 14170 8787 1 109.50000 418.400000
8786 14170 8787 1 109.50000 418.400000
5212 14171 8674 1 109.50000 418.400000
5212 14171 8788 1 109.50000 418.400000
5212 14171 8789 1 109.50000 418.400000
8674 14171 8788 1 109.50000 418.400000
8674 14171 8789 1 109.50000 418.400000
8788 14171 8789 1 109.50000 418.400000
2763 14172 8790 1 109.50000 418.400000
2763 14172 8791 1 109.50000 418.400000
2763 14172 8792 1 109.50000 418.400000
8790 14172 8791 1 109.50000 418.400000
8790 14172 8792 1 109.50000 418.400000
8791 14172 8792 1 109.50000 418.400000
4645 14173 8793 1 109.50000 418.400000
4645 14173 8794 1 109.50000 418.400000
4645 14173 11293 1 109.50000 418.400000
8793 14173 8794 1 109.50000 418.400000
8793 14173 11293 1 109.50000 418.400000
8794 14173 11293 1 109.50000 418.400000
5631 14174 5674 1 109.50000 418.400000
5631 14174 6092 1 109.50000 418.400000
5631 14174 8795 1 109.50000 418.400000
5674 14174 6092 1 109.50000 418.400000
5674 14174 8795 1 109.50000 418.400000
6092 14174 8795 1 109.50000 418.400000
3610 14175 6521 1 109.50000 418.400000
3610 14175 8796 1 109.50000 418.400000
3610 14175 8797 1 109.50000 418.400000
6521 14175 8796 1 109.50000 418.400000
6521 14175 8797 1 109.50000 418.400000
8796 14175 8797 1 109.50000 418.400000
4932 14176 6306 1 109.50000 418.400000
4932 14176 8798 1 109.50000 418.400000
4932 14176 8799 1 109.50000 418.400000
6306 14176 8798 1 109.50000 418.400000
6306 14176 8799 1 109.50000 418.400000
8798 14176 8799 1 109.50000 418.400000
7555 14177 8800 1 109.50000 418.400000
7555 14177 8801 1 109.50000 418.400000
7555 14177 8802 1 109.50000 418.400000
8800 14177 8801 1 109.50000 418.400000
8800 14177 8802 1 109.50000 418.400000
8801 14177 8802 1 109.50000 418.400000
215 14178 6196 1 109.50000 418.400000
215 14178 8803 1 109.50000 418.400000
215 14178 8804 1 109.50000 418.400000
6196 14178 8803 1 109.50000 418.400000
6196 14178 8804 1 109.50000 418.400000
8803 14178 8804 1 109.50000 418.400000
1954 14179 8805 1 109.50000 418.400000
1954 14179 8806 1 109.50000 418.400000
1954 14179 8807 1 109.50000 418.400000
8805 14179 8806 1 109.50000 418.400000
8805 14179 8807 1 109.50000 418.400000
8806 14179 8807 1 109.50000 418.400000
5615 14180 5670 1 109.50000 418.400000
5615 14180 5821 1 109.50000 418.400000
5615 14180 8808 1 109.50000 418.400000
5670 14180 5821 1 109.50000 418.400000
5670 14180 8808 1 109.50000 418.400000
5821 14180 8808 1 109.50000 418.400000
8804 14181 8809 1 109.50000 418.400000
8804 14181 8810 1 109.50000 418.400000
8804 14181 8811 1 109.50000 418.400000
8809 14181 8810 1 109.50000 418.400000
8809 14181 8811 1 109.50000 418.400000
8810 14181 8811 1 109.50000 418.400000
5206 14182 5207 1 109.50000 418.400000
5206 14182 6503 1 109.50000 418.400000
5206 14182 8812 1 109.50000 418.400000
5207 14182 6503 1 109.50000 418.400000
5207 14182 8812 1 109.50000 418.400000
6503 14182 8812 1 109.50000 418.400000
3838 14183 4964 1 109.50000 418.400000
3838 14183 6719 1 109.50000 418.400000
3838 14183 8814 1 109.50000 418.400000
4964 14183 6719 1 109.50000 418.400000
4964 14183 8814 1 109.50000 418.400000
6719 14183 8814 1 109.50000 418.400000
4899 14184 4900 1 109.50000 418.400000
4899 14184 7224 1 109.50000 418.400000
4899 14184 8816 1 109.50000 418.400000
4900 14184 7224 1 109.50000 418.400000
4900 14184 8816 1 109.50000 418.400000
7224 14184 8816 1 109.50000 418.400000
5338 14185 6780 1 109.50000 418.400000
5338 14185 6781 1 109.50000 418.400000
5338 14185 8817 1 109.50000 418.400000
6780 14185 6781 1 109.50000 418.400000
6780 14185 8817 1 109.50000 418.400000
6781 14185 8817 1 109.50000 418.400000
7548 14186 8818 1 109.50000 418.400000
7548 14186 8819 1 109.50000 418.400000
7548 14186 9922 1 109.50000 418.400000
8818 14186 8819 1 109.50000 418.400000
8818 14186 9922 1 109.50000 418.400000
8819 14186 9922 1 109.50000 418.400000
4684 14187 5275 1 109.50000 418.400000
4684 14187 7412 1 109.50000 418.400000
4684 14187 8820 1 109.50000 418.400000
5275 14187 7412 1 109.50000 418.400000
5275 14187 8820 1 109.50000 418.400000
7412 14187 8820 1 109.50000 418.400000
7450 14188 8823 1 109.50000 418.400000
7450 14188 8824 1 109.50000 418.400000
7450 14188 11006 1 109.50000 418.400000
8823 14188 8824 1 109.50000 418.400000
8823 14188 11006 1 109.50000 418.400000
8824 14188 11006 1 109.50000 418.400000
5315 14189 5813 1 109.50000 418.400000
5315 14189 8307 1 109.50000 418.400000
5315 14189 8825 1 109.50000 418.400000
5813 14189 8307 1 109.50000 418.400000
5813 14189 8825 1 109.50000 418.400000
8307 14189 8825 1 109.50000 418.400000
3210 14190 7543 1 109.50000 418.400000
3210 14190 8666 1 109.50000 418.400000
3210 14190 8667 1 109.50000 418.400000
7543 14190 8666 1 109.50000 418.400000
7543 14190 8667 1 109.50000 418.400000
8666 14190 8667 1 109.50000 418.400000
325 14191 4040 1 109.50000 418.400000
325 14191 6439 1 109.50000 418.400000
325 14191 8642 1 109.50000 418.400000
4040 14191 6439 1 109.50000 418.400000
4040 14191 8642 1 109.50000 418.400000
6439 14191 8642 1 109.50000 418.400000
47 14192 217 1 109.50000 418.400000
47 14192 7159 1 109.50000 418.400000
47 14192 7470 1 109.50000 418.400000
217 14192 7159 1 109.50000 418.400000
217 14192 7470 1 109.50000 418.400000
7159 14192 7470 1 109.50000 418.400000
3461 14193 8827 1 109.50000 418.400000
3461 14193 8828 1 109.50000 418.400000
3461 14193 8829 1 109.50000 418.400000
8827 14193 8828 1 109.50000 418.400000
8827 14193 8829 1 109.50000 418.400000
8828 14193 8829 1 109.50000 418.400000
1007 14194 6259 1 109.50000 418.400000
1007 14194 6357 1 109.50000 418.400000
1007 14194 8830 1 109.50000 418.400000
6259 14194 6357 1 109.50000 418.400000
6259 14194 8830 1 109.50000 418.400000
6357 14194 8830 1 109.50000 418.400000
8831 14195 8832 1 109.50000 418.400000
8831 14195 8833 1 109.50000 418.400000
8831 14195 8834 1 109.50000 418.400000
8832 14195 8833 1 109.50000 418.400000
8832 14195 8834 1 109.50000 418.400000
8833 14195 8834 1 109.50000 418.400000
3020 14196 5070 1 109.50000 418.400000
3020 14196 5323 1 109.50000 418.400000
3020 14196 8835 1 109.50000 418.400000
5070 14196 5323 1 109.50000 418.400000
5070 14196 8835 1 109.50000 418.400000
5323 14196 8835 1 109.50000 418.400000
1606 14197 3257 1 109.50000 418.400000
1606 14197 4614 1 109.50000 418.400000
1606 14197 8836 1 109.50000 418.400000
3257 14197 4614 1 109.50000 418.400000
3257 14197 8836 1 109.50000 418.400000
4614 14197 8836 1 109.50000 418.400000
1094 14198 4980 1 109.50000 418.400000
1094 14198 5957 1 109.50000 418.400000
1094 14198 8837 1 109.50000 418.400000
4980 14198 5957 1 109.50000 418.400000
4980 14198 8837 1 109.50000 418.400000
5957 14198 8837 1 109.50000 418.400000
1254 14199 8838 1 109.50000 418.400000
1254 14199 8839 1 109.50000 418.400000
1254 14199 8840 1 109.50000 418.400000
8838 14199 8839 1 109.50000 418.400000
8838 14199 8840 1 109.50000 418.400000
8839 14199 8840 1 109.50000 418.400000
6131 14200 6636 1 109.50000 418.400000
6131 14200 8841 1 109.50000 418.400000
6131 14200 8842 1 109.50000 418.400000
6636 14200 8841 1 109.50000 418.400000
6636 14200 8842 1 109.50000 418.400000
8841 14200 8842 1 109.50000 418.400000
7892 14201 8094 1 109.50000 418.400000
7892 14201 8843 1 109.50000 418.400000
7892 14201 8844 1 109.50000 418.400000
8094 14201 8843 1 109.50000 418.400000
8094 14201 8844 1 109.50000 418.400000
8843 14201 8844 1 109.50000 418.400000
1482 14202 4548 1 109.50000 418.400000
1482 14202 8845 1 109.50000 418.400000
1482 14202 8846 1 109.50000 418.400000
4548 14202 8845 1 109.50000 418.400000
4548 14202 8846 1 109.50000 418.400000
8845 14202 8846 1 109.50000 418.400000
5208 14203 6167 1 109.50000 418.400000
5208 14203 6170 1 109.50000 418.400000
5208 14203 8847 1 109.50000 418.400000
6167 14203 6170 1 109.50000 418.400000
6167 14203 8847 1 109.50000 418.400000
6170 14203 8847 1 109.50000 418.400000
3756 14204 4192 1 109.50000 418.400000
3756 14204 5933 1 109.50000 418.400000
3756 14204 8849 1 109.50000 418.400000
4192 14204 5933 1 109.50000 418.400000
4192 14204 8849 1 109.50000 418.400000
5933 14204 8849 1 109.50000 418.400000
1768 14205 4525 1 109.50000 418.400000
1768 14205 5084 1 109.50000 418.400000
1768 14205 8850 1 109.50000 418.400000
4525 14205 5084 1 109.50000 418.400000
4525 14205 8850 1 109.50000 418.400000
5084 14205 8850 1 109.50000 418.400000
397 14206 8852 1 109.50000 418.400000
397 14206 8853 1 109.50000 418.400000
397 14206 8854 1 109.50000 418.400000
8852 14206 8853 1 109.50000 418.400000
8852 14206 8854 1 109.50000 418.400000
8853 14206 8854 1 109.50000 418.400000
4347 14207 5629 1 109.50000 418.400000
4347 14207 8856 1 109.50000 418.400000
4347 14207 8857 1 109.50000 418.400000
5629 14207 8856 1 109.50000 418.400000
5629 14207 8857 1 109.50000 418.400000
8856 14207 8857 1 109.50000 418.400000
2873 14208 8858 1 109.50000 418.400000
2873 14208 8859 1 109.50000 418.400000
2873 14208 8860 1 109.50000 418.400000
8858 14208 8859 1 109.50000 418.400000
8858 14208 8860 1 109.50000 418.400000
8859 14208 8860 1 109.50000 418.400000
252 14209 8861 1 109.50000 418.400000
252 14209 8862 1 109.50000 418.400000
252 14209 8863 1 109.50000 418.400000
8861 14209 8862 1 109.50000 418.400000
8861 14209 8863 1 109.50000 418.400000
8862 14209 8863 1 109.50000 418.400000
3112 14210 5160 1 109.50000 418.400000
3112 14210 6426 1 109.50000 418.400000
3112 14210 8868 1 109.50000 418.400000
5160 14210 6426 1 109.50000 418.400000
5160 14210 8868 1 109.50000 418.400000
6426 14210 8868 1 109.50000 418.400000
5491 14211 7325 1 109.50000 418.400000
5491 14211 8870 1 109.50000 418.400000
5491 14211 8871 1 109.50000 418.400000
7325 14211 8870 1 109.50000 418.400000
7325 14211 8871 1 109.50000 418.400000
8870 14211 8871 1 109.50000 418.400000
199 14212 3306 1 109.50000 418.400000
199 14212 6686 1 109.50000 418.400000
199 14212 7402 1 109.50000 418.400000
3306 14212 6686 1 109.50000 418.400000
3306 14212 7402 1 109.50000 418.400000
6686 14212 7402 1 109.50000 418.400000
3392 14213 3781 1 109.50000 418.400000
3392 14213 5083 1 109.50000 418.400000
3392 14213 8872 1 109.50000 418.400000
3781 14213 5083 1 109.50000 418.400000
3781 14213 8872 1 109.50000 418.400000
5083 14213 8872 1 109.50000 418.400000
8873 14214 8874 1 109.50000 418.400000
8873 14214 8875 1 109.50000 418.400000
8873 14214 11165 1 109.50000 418.400000
8874 14214 8875 1 109.50000 418.400000
8874 14214 11165 1 109.50000 418.400000
8875 14214 11165 1 109.50000 418.400000
4674 14215 8878 1 109.50000 418.400000
4674 14215 8879 1 109.50000 418.400000
4674 14215 11327 1 109.50000 418.400000
8878 14215 8879 1 109.50000 418.400000
8878 14215 11327 1 109.50000 418.400000
8879 14215 11327 1 109.50000 418.400000
830 14216 1868 1 109.50000 418.400000
830 14216 3991 1 109.50000 418.400000
830 14216 8880 1 109.50000 418.400000
1868 14216 3991 1 109.50000 418.400000
1868 14216 8880 1 109.50000 418.400000
3991 14216 8880 1 109.50000 418.400000
1096 14217 1610 1 109.50000 418.400000
1096 14217 8881 1 109.50000 418.400000
1096 14217 8882 1 109.50000 418.400000
1610 14217 8881 1 109.50000 418.400000
1610 14217 8882 1 109.50000 418.400000
8881 14217 8882 1 109.50000 418.400000
3251 14218 5609 1 109.50000 418.400000
3251 14218 6254 1 109.50000 418.400000
3251 14218 8883 1 109.50000 418.400000
5609 14218 6254 1 109.50000 418.400000
5609 14218 8883 1 109.50000 418.400000
6254 14218 8883 1 109.50000 418.400000
3646 14219 5053 1 109.50000 418.400000
3646 14219 8884 1 109.50000 418.400000
3646 14219 8885 1 109.50000 418.400000
5053 14219 8884 1 109.50000 418.400000
5053 14219 8885 1 109.50000 418.400000
8884 14219 8885 1 109.50000 418.400000
2807 14220 3049 1 109.50000 418.400000
2807 14220 8886 1 109.50000 418.400000
2807 14220 8887 1 109.50000 418.400000
3049 14220 8886 1 109.50000 418.400000
3049 14220 8887 1 109.50000 418.400000
8886 14220 8887 1 109.50000 418.400000
3506 14221 3966 1 109.50000 418.400000
3506 14221 4918 1 109.50000 418.400000
3506 14221 7059 1 109.50000 418.400000
3966 14221 4918 1 109.50000 418.400000
3966 14221 7059 1 109.50000 418.400000
4918 14221 7059 1 109.50000 418.400000
2534 14222 8888 1 109.50000 418.400000
2534 14222 8889 1 109.50000 418.400000
2534 14222 8890 1 109.50000 418.400000
8888 14222 8889 1 109.50000 418.400000
8888 14222 8890 1 109.50000 418.400000
8889 14222 8890 1 109.50000 418.400000
5154 14223 7487 1 109.50000 418.400000
5154 14223 8891 1 109.50000 418.400000
5154 14223 8892 1 109.50000 418.400000
7487 14223 8891 1 109.50000 418.400000
7487 14223 8892 1 109.50000 418.400000
8891 14223 8892 1 109.50000 418.400000
3723 14224 7214 1 109.50000 418.400000
3723 14224 7216 1 109.50000 418.400000
3723 14224 8893 1 109.50000 418.400000
7214 14224 7216 1 109.50000 418.400000
7214 14224 8893 1 109.50000 418.400000
7216 14224 8893 1 109.50000 418.400000
2693 14225 5978 1 109.50000 418.400000
2693 14225 6190 1 109.50000 418.400000
2693 14225 8895 1 109.50000 418.400000
5978 14225 6190 1 109.50000 418.400000
5978 14225 8895 1 109.50000 418.400000
6190 14225 8895 1 109.50000 418.400000
8075 14226 8896 1 109.50000 418.400000
8075 14226 8897 1 109.50000 418.400000
8075 14226 8898 1 109.50000 418.400000
8896 14226 8897 1 109.50000 418.400000
8896 14226 8898 1 109.50000 418.400000
8897 14226 8898 1 109.50000 418.400000
1817 14227 5732 1 109.50000 418.400000
1817 14227 8631 1 109.50000 418.400000
1817 14227 8899 1 109.50000 418.400000
5732 14227 8631 1 109.50000 418.400000
5732 14227 8899 1 109.50000 418.400000
8631 14227 8899 1 109.50000 418.400000
4960 14228 7053 1 109.50000 418.400000
4960 14228 8900 1 109.50000 418.400000
4960 14228 8901 1 109.50000 418.400000
7053 14228 8900 1 109.50000 418.400000
7053 14228 8901 1 109.50000 418.400000
8900 14228 8901 1 109.50000 418.400000
2360 14229 7922 1 109.50000 418.400000
2360 14229 8902 1 109.50000 418.400000
2360 14229 8903 1 109.50000 418.400000
7922 14229 8902 1 109.50000 418.400000
7922 14229 8903 1 109.50000 418.400000
8902 14229 8903 1 109.50000 418.400000
7653 14230 8904 1 109.50000 418.400000
7653 14230 8905 1 109.50000 418.400000
7653 14230 8906 1 109.50000 418.400000
8904 14230 8905 1 109.50000 418.400000
8904 14230 8906 1 109.50000 418.400000
8905 14230 8906 1 109.50000 418.400000
1753 14231 1759 1 109.50000 418.400000
1753 14231 7369 1 109.50000 418.400000
1753 14231 8907 1 109.50000 418.400000
1759 14231 7369 1 109.50000 418.400000
1759 14231 8907 1 109.50000 418.400000
7369 14231 8907 1 109.50000 418.400000
4256 14232 5014 1 109.50000 418.400000
4256 14232 5746 1 109.50000 418.400000
4256 14232 8285 1 109.50000 418.400000
5014 14232 5746 1 109.50000 418.400000
5014 14232 8285 1 109.50000 418.400000
5746 14232 8285 1 109.50000 418.400000
1339 14233 3998 1 109.50000 418.400000
1339 14233 8909 1 109.50000 418.400000
1339 14233 8910 1 109.50000 418.400000
3998 14233 8909 1 109.50000 418.400000
3998 14233 8910 1 109.50000 418.400000
8909 14233 8910 1 109.50000 418.400000
7576 14234 8334 1 109.50000 418.400000
7576 14234 8911 1 109.50000 418.400000
7576 14234 8912 1 109.50000 418.400000
8334 14234 8911 1 109.50000 418.400000
8334 14234 8912 1 109.50000 418.400000
8911 14234 8912 1 109.50000 418.400000
5971 14235 8755 1 109.50000 418.400000
5971 14235 8914 1 109.50000 418.400000
5971 14235 8915 1 109.50000 418.400000
8755 14235 8914 1 109.50000 418.400000
8755 14235 8915 1 109.50000 418.400000
8914 14235 8915 1 109.50000 418.400000
304 14236 3553 1 109.50000 418.400000
304 14236 5890 1 109.50000 418.400000
304 14236 8917 1 109.50000 418.400000
3553 14236 5890 1 109.50000 418.400000
3553 14236 8917 1 109.50000 418.400000
5890 14236 8917 1 109.50000 418.400000
4123 14237 8918 1 109.50000 418.400000
4123 14237 8919 1 109.50000 418.400000
4123 14237 8920 1 109.50000 418.400000
8918 14237 8919 1 109.50000 418.400000
8918 14237 8920 1 109.50000 418.400000
8919 14237 8920 1 109.50000 418.400000
4568 14238 6156 1 109.50000 418.400000
4568 14238 8921 1 109.50000 418.400000
4568 14238 8922 1 109.50000 418.400000
6156 14238 8921 1 109.50000 418.400000
6156 14238 8922 1 109.50000 418.400000
8921 14238 8922 1 109.50000 418.400000
1939 14239 2165 1 109.50000 418.400000
1939 14239 7449 1 109.50000 418.400000
1939 14239 11256 1 109.50000 418.400000
2165 14239 7449 1 109.50000 418.400000
2165 14239 11256 1 109.50000 418.400000
7449 14239 11256 1 109.50000 418.400000
6205 14240 8924 1 109.50000 418.400000
6205 14240 8925 1 109.50000 418.400000
6205 14240 8926 1 109.50000 418.400000
8924 14240 8925 1 109.50000 418.400000
8924 14240 8926 1 109.50000 418.400000
8925 14240 8926 1 109.50000 418.400000
7510 14241 8407 1 109.50000 418.400000
7510 14241 8927 1 109.50000 418.400000
7510 14241 11166 1 109.50000 418.400000
8407 14241 8927 1 109.50000 418.400000
8407 14241 11166 1 109.50000 418.400000
8927 14241 11166 1 109.50000 418.400000
788 14242 3608 1 109.50000 418.400000
788 14242 4974 1 109.50000 418.400000
788 14242 8929 1 109.50000 418.400000
3608 14242 4974 1 109.50000 418.400000
3608 14242 8929 1 109.50000 418.400000
4974 14242 8929 1 109.50000 418.400000
8930 14243 8931 1 109.50000 418.400000
8930 14243 8932 1 109.50000 418.400000
8930 14243 8933 1 109.50000 418.400000
8931 14243 8932 1 109.50000 418.400000
8931 14243 8933 1 109.50000 418.400000
8932 14243 8933 1 109.50000 418.400000
1253 14244 6609 1 109.50000 418.400000
1253 14244 8934 1 109.50000 418.400000
1253 14244 8935 1 109.50000 418.400000
6609 14244 8934 1 109.50000 418.400000
6609 14244 8935 1 109.50000 418.400000
8934 14244 8935 1 109.50000 418.400000
1164 14245 5514 1 109.50000 418.400000
1164 14245 7958 1 109.50000 418.400000
1164 14245 8936 1 109.50000 418.400000
5514 14245 7958 1 109.50000 418.400000
5514 14245 8936 1 109.50000 418.400000
7958 14245 8936 1 109.50000 418.400000
3476 14246 5828 1 109.50000 418.400000
3476 14246 8937 1 109.50000 418.400000
3476 14246 8938 1 109.50000 418.400000
5828 14246 8937 1 109.50000 418.400000
5828 14246 8938 1 109.50000 418.400000
8937 14246 8938 1 109.50000 418.400000
2579 14247 7057 1 109.50000 418.400000
2579 14247 7903 1 109.50000 418.400000
2579 14247 8939 1 109.50000 418.400000
7057 14247 7903 1 109.50000 418.400000
7057 14247 8939 1 109.50000 418.400000
7903 14247 8939 1 109.50000 418.400000
2705 14248 7558 1 109.50000 418.400000
2705 14248 7584 1 109.50000 418.400000
2705 14248 8940 1 109.50000 418.400000
7558 14248 7584 1 109.50000 418.400000
7558 14248 8940 1 109.50000 418.400000
7584 14248 8940 1 109.50000 418.400000
2954 14249 5970 1 109.50000 418.400000
2954 14249 5973 1 109.50000 418.400000
2954 14249 8941 1 109.50000 418.400000
5970 14249 5973 1 109.50000 418.400000
5970 14249 8941 1 109.50000 418.400000
5973 14249 8941 1 109.50000 418.400000
8943 14250 8944 1 109.50000 418.400000
8943 14250 8945 1 109.50000 418.400000
8943 14250 8946 1 109.50000 418.400000
8944 14250 8945 1 109.50000 418.400000
8944 14250 8946 1 109.50000 418.400000
8945 14250 8946 1 109.50000 418.400000
1695 14251 2785 1 109.50000 418.400000
1695 14251 8947 1 109.50000 418.400000
1695 14251 8948 1 109.50000 418.400000
2785 14251 8947 1 109.50000 418.400000
2785 14251 8948 1 109.50000 418.400000
8947 14251 8948 1 109.50000 418.400000
8949 14252 8950 1 109.50000 418.400000
8949 14252 8951 1 109.50000 418.400000
8949 14252 8952 1 109.50000 418.400000
8950 14252 8951 1 109.50000 418.400000
8950 14252 8952 1 109.50000 418.400000
8951 14252 8952 1 109.50000 418.400000
1740 14253 2379 1 109.50000 418.400000
1740 14253 4546 1 109.50000 418.400000
1740 14253 8953 1 109.50000 418.400000
2379 14253 4546 1 109.50000 418.400000
2379 14253 8953 1 109.50000 418.400000
4546 14253 8953 1 109.50000 418.400000
2876 14254 8954 1 109.50000 418.400000
2876 14254 8955 1 109.50000 418.400000
2876 14254 8956 1 109.50000 418.400000
8954 14254 8955 1 109.50000 418.400000
8954 14254 8956 1 109.50000 418.400000
8955 14254 8956 1 109.50000 418.400000
7989 14255 8957 1 109.50000 418.400000
7989 14255 8958 1 109.50000 418.400000
7989 14255 8959 1 109.50000 418.400000
8957 14255 8958 1 109.50000 418.400000
8957 14255 8959 1 109.50000 418.400000
8958 14255 8959 1 109.50000 418.400000
2650 14256 5326 1 109.50000 418.400000
2650 14256 5363 1 109.50000 418.400000
2650 14256 5382 1 109.50000 418.400000
5326 14256 5363 1 109.50000 418.400000
5326 14256 5382 1 109.50000 418.400000
5363 14256 5382 1 109.50000 418.400000
424 14257 638 1 109.50000 418.400000
424 14257 5150 1 109.50000 418.400000
424 14257 8960 1 109.50000 418.400000
638 14257 5150 1 109.50000 418.400000
638 14257 8960 1 109.50000 418.400000
5150 14257 8960 1 109.50000 418.400000
1465 14258 5851 1 109.50000 418.400000
1465 14258 8248 1 109.50000 418.400000
1465 14258 8963 1 109.50000 418.400000
5851 14258 8248 1 109.50000 418.400000
5851 14258 8963 1 109.50000 418.400000
8248 14258 8963 1 109.50000 418.400000
8129 14259 8964 1 109.50000 418.400000
8129 14259 8965 1 109.50000 418.400000
8129 14259 8966 1 109.50000 418.400000
8964 14259 8965 1 109.50000 418.400000
8964 14259 8966 1 109.50000 418.400000
8965 14259 8966 1 109.50000 418.400000
1729 14260 3174 1 109.50000 418.400000
1729 14260 8960 1 109.50000 418.400000
1729 14260 8967 1 109.50000 418.400000
3174 14260 8960 1 109.50000 418.400000
3174 14260 8967 1 109.50000 418.400000
8960 14260 8967 1 109.50000 418.400000
7224 14261 7225 1 109.50000 418.400000
7224 14261 8968 1 109.50000 418.400000
7224 14261 8969 1 109.50000 418.400000
7225 14261 8968 1 109.50000 418.400000
7225 14261 8969 1 109.50000 418.400000
8968 14261 8969 1 109.50000 418.400000
1518 14262 3058 1 109.50000 418.400000
1518 14262 4201 1 109.50000 418.400000
1518 14262 7266 1 109.50000 418.400000
3058 14262 4201 1 109.50000 418.400000
3058 14262 7266 1 109.50000 418.400000
4201 14262 7266 1 109.50000 418.400000
4732 14263 8971 1 109.50000 418.400000
4732 14263 8972 1 109.50000 418.400000
4732 14263 8973 1 109.50000 418.400000
8971 14263 8972 1 109.50000 418.400000
8971 14263 8973 1 109.50000 418.400000
8972 14263 8973 1 109.50000 418.400000
2800 14264 2802 1 109.50000 418.400000
2800 14264 8977 1 109.50000 418.400000
2800 14264 8978 1 109.50000 418.400000
2802 14264 8977 1 109.50000 418.400000
2802 14264 8978 1 109.50000 418.400000
8977 14264 8978 1 109.50000 418.400000
8385 14265 8979 1 109.50000 418.400000
8385 14265 8980 1 109.50000 418.400000
8385 14265 8981 1 109.50000 418.400000
8979 14265 8980 1 109.50000 418.400000
8979 14265 8981 1 109.50000 418.400000
8980 14265 8981 1 109.50000 418.400000
5624 14266 5936 1 109.50000 418.400000
5624 14266 8982 1 109.50000 418.400000
5624 14266 8983 1 109.50000 418.400000
5936 14266 8982 1 109.50000 418.400000
5936 14266 8983 1 109.50000 418.400000
8982 14266 8983 1 109.50000 418.400000
2666 14267 5800 1 109.50000 418.400000
2666 14267 8984 1 109.50000 418.400000
2666 14267 8985 1 109.50000 418.400000
5800 14267 8984 1 109.50000 418.400000
5800 14267 8985 1 109.50000 418.400000
8984 14267 8985 1 109.50000 418.400000
1200 14268 1304 1 109.50000 418.400000
1200 14268 1305 1 109.50000 418.400000
1200 14268 3190 1 109.50000 418.400000
1304 14268 1305 1 109.50000 418.400000
1304 14268 3190 1 109.50000 418.400000
1305 14268 3190 1 109.50000 418.400000
8016 14269 8987 1 109.50000 418.400000
8016 14269 8988 1 109.50000 418.400000
8016 14269 8989 1 109.50000 418.400000
8987 14269 8988 1 109.50000 418.400000
8987 14269 8989 1 109.50000 418.400000
8988 14269 8989 1 109.50000 418.400000
3772 14270 6488 1 109.50000 418.400000
3772 14270 8990 1 109.50000 418.400000
3772 14270 11271 1 109.50000 418.400000
6488 14270 8990 1 109.50000 418.400000
6488 14270 11271 1 109.50000 418.400000
8990 14270 11271 1 109.50000 418.400000
5863 14271 6075 1 109.50000 418.400000
5863 14271 7049 1 109.50000 418.400000
5863 14271 7504 1 109.50000 418.400000
6075 14271 7049 1 109.50000 418.400000
6075 14271 7504 1 109.50000 418.400000
7049 14271 7504 1 109.50000 418.400000
849 14272 4266 1 109.50000 418.400000
849 14272 8991 1 109.50000 418.400000
849 14272 8992 1 109.50000 418.400000
4266 14272 8991 1 109.50000 418.400000
4266 14272 8992 1 109.50000 418.400000
8991 14272 8992 1 109.50000 418.400000
702 14273 8527 1 109.50000 418.400000
702 14273 8993 1 109.50000 418.400000
702 14273 8994 1 109.50000 418.400000
8527 14273 8993 1 109.50000 418.400000
8527 14273 8994 1 109.50000 418.400000
8993 14273 8994 1 109.50000 418.400000
1098 14274 6160 1 109.50000 418.400000
1098 14274 8549 1 109.50000 418.400000
1098 14274 8995 1 109.50000 418.400000
6160 14274 8549 1 109.50000 418.400000
6160 14274 8995 1 109.50000 418.400000
8549 14274 8995 1 109.50000 418.400000
6256 14275 6258 1 109.50000 418.400000
6256 14275 6884 1 109.50000 418.400000
6256 14275 8271 1 109.50000 418.400000
6258 14275 6884 1 109.50000 418.400000
6258 14275 8271 1 109.50000 418.400000
6884 14275 8271 1 109.50000 418.400000
6973 14276 7356 1 109.50000 418.400000
6973 14276 8996 1 109.50000 418.400000
6973 14276 8997 1 109.50000 418.400000
7356 14276 8996 1 109.50000 418.400000
7356 14276 8997 1 109.50000 418.400000
8996 14276 8997 1 109.50000 418.400000
6074 14277 7503 1 109.50000 418.400000
6074 14277 8282 1 109.50000 418.400000
6074 14277 8283 1 109.50000 418.400000
7503 14277 8282 1 109.50000 418.400000
7503 14277 8283 1 109.50000 418.400000
8282 14277 8283 1 109.50000 418.400000
5926 14278 8196 1 109.50000 418.400000
5926 14278 8999 1 109.50000 418.400000
5926 14278 9000 1 109.50000 418.400000
8196 14278 8999 1 109.50000 418.400000
8196 14278 9000 1 109.50000 418.400000
8999 14278 9000 1 109.50000 418.400000
5555 14279 9002 1 109.50000 418.400000
5555 14279 9003 1 109.50000 418.400000
5555 14279 9004 1 109.50000 418.400000
9002 14279 9003 1 109.50000 418.400000
9002 14279 9004 1 109.50000 418.400000
9003 14279 9004 1 109.50000 418.400000
3983 14280 5833 1 109.50000 418.400000
3983 14280 9005 1 109.50000 418.400000
3983 14280 11273 1 109.50000 418.400000
5833 14280 9005 1 109.50000 418.400000
5833 14280 11273 1 109.50000 418.400000
9005 14280 11273 1 109.50000 418.400000
1347 14281 9006 1 109.50000 418.400000
1347 14281 9007 1 109.50000 418.400000
1347 14281 9008 1 109.50000 418.400000
9006 14281 9007 1 109.50000 418.400000
9006 14281 9008 1 109.50000 418.400000
9007 14281 9008 1 109.50000 418.400000
2132 14282 6633 1 109.50000 418.400000
2132 14282 8827 1 109.50000 418.400000
2132 14282 9009 1 109.50000 418.400000
6633 14282 8827 1 109.50000 418.400000
6633 14282 9009 1 109.50000 418.400000
8827 14282 9009 1 109.50000 418.400000
4356 14283 6106 1 109.50000 418.400000
4356 14283 9013 1 109.50000 418.400000
4356 14283 9014 1 109.50000 418.400000
6106 14283 9013 1 109.50000 418.400000
6106 14283 9014 1 109.50000 418.400000
9013 14283 9014 1 109.50000 418.400000
8252 14284 9015 1 109.50000 418.400000
8252 14284 9017 1 109.50000 418.400000
8252 14284 10315 1 109.50000 418.400000
9015 14284 9017 1 109.50000 418.400000
9015 14284 10315 1 109.50000 418.400000
9017 14284 10315 1 109.50000 418.400000
549 14285 3741 1 109.50000 418.400000
549 14285 7803 1 109.50000 418.400000
549 14285 9018 1 109.50000 418.400000
3741 14285 7803 1 109.50000 418.400000
3741 14285 9018 1 109.50000 418.400000
7803 14285 9018 1 109.50000 418.400000
2438 14286 3891 1 109.50000 418.400000
2438 14286 6184 1 109.50000 418.400000
2438 14286 9019 1 109.50000 418.400000
3891 14286 6184 1 109.50000 418.400000
3891 14286 9019 1 109.50000 418.400000
6184 14286 9019 1 109.50000 418.400000
3902 14287 4470 1 109.50000 418.400000
3902 14287 9020 1 109.50000 418.400000
3902 14287 9021 1 109.50000 418.400000
4470 14287 9020 1 109.50000 418.400000
4470 14287 9021 1 109.50000 418.400000
9020 14287 9021 1 109.50000 418.400000
5559 14288 8071 1 109.50000 418.400000
5559 14288 9022 1 109.50000 418.400000
5559 14288 9023 1 109.50000 418.400000
8071 14288 9022 1 109.50000 418.400000
8071 14288 9023 1 109.50000 418.400000
9022 14288 9023 1 109.50000 418.400000
7936 14289 9026 1 109.50000 418.400000
7936 14289 9027 1 109.50000 418.400000
7936 14289 9028 1 109.50000 418.400000
9026 14289 9027 1 109.50000 418.400000
9026 14289 9028 1 109.50000 418.400000
9027 14289 9028 1 109.50000 418.400000
7045 14290 8941 1 109.50000 418.400000
7045 14290 9029 1 109.50000 418.400000
7045 14290 9030 1 109.50000 418.400000
8941 14290 9029 1 109.50000 418.400000
8941 14290 9030 1 109.50000 418.400000
9029 14290 9030 1 109.50000 418.400000
3544 14291 9031 1 109.50000 418.400000
3544 14291 9032 1 109.50000 418.400000
3544 14291 9033 1 109.50000 418.400000
9031 14291 9032 1 109.50000 418.400000
9031 14291 9033 1 109.50000 418.400000
9032 14291 9033 1 109.50000 418.400000
1328 14292 4875 1 109.50000 418.400000
1328 14292 6236 1 109.50000 418.400000
1328 14292 9034 1 109.50000 418.400000
4875 14292 6236 1 109.50000 418.400000
4875 14292 9034 1 109.50000 418.400000
6236 14292 9034 1 109.50000 418.400000
4535 14293 5828 1 109.50000 418.400000
4535 14293 5829 1 109.50000 418.400000
4535 14293 6960 1 109.50000 418.400000
5828 14293 5829 1 109.50000 418.400000
5828 14293 6960 1 109.50000 418.400000
5829 14293 6960 1 109.50000 418.400000
1466 14294 3017 1 109.50000 418.400000
1466 14294 9036 1 109.50000 418.400000
1466 14294 9037 1 109.50000 418.400000
3017 14294 9036 1 109.50000 418.400000
3017 14294 9037 1 109.50000 418.400000
9036 14294 9037 1 109.50000 418.400000
2703 14295 4770 1 109.50000 418.400000
2703 14295 9038 1 109.50000 418.400000
2703 14295 9039 1 109.50000 418.400000
4770 14295 9038 1 109.50000 418.400000
4770 14295 9039 1 109.50000 418.400000
9038 14295 9039 1 109.50000 418.400000
6485 14296 9040 1 109.50000 418.400000
6485 14296 9042 1 109.50000 418.400000
6485 14296 9043 1 109.50000 418.400000
9040 14296 9042 1 109.50000 418.400000
9040 14296 9043 1 109.50000 418.400000
9042 14296 9043 1 109.50000 418.400000
2351 14297 3317 1 109.50000 418.400000
2351 14297 5078 1 109.50000 418.400000
2351 14297 9044 1 109.50000 418.400000
3317 14297 5078 1 109.50000 418.400000
3317 14297 9044 1 109.50000 418.400000
5078 14297 9044 1 109.50000 418.400000
117 14298 6388 1 109.50000 418.400000
117 14298 8806 1 109.50000 418.400000
117 14298 9045 1 109.50000 418.400000
6388 14298 8806 1 109.50000 418.400000
6388 14298 9045 1 109.50000 418.400000
8806 14298 9045 1 109.50000 418.400000
7928 14299 8360 1 109.50000 418.400000
7928 14299 9046 1 109.50000 418.400000
7928 14299 9047 1 109.50000 418.400000
8360 14299 9046 1 109.50000 418.400000
8360 14299 9047 1 109.50000 418.400000
9046 14299 9047 1 109.50000 418.400000
2288 14300 5838 1 109.50000 418.400000
2288 14300 9049 1 109.50000 418.400000
2288 14300 9050 1 109.50000 418.400000
5838 14300 9049 1 109.50000 418.400000
5838 14300 9050 1 109.50000 418.400000
9049 14300 9050 1 109.50000 418.400000
6365 14301 8381 1 109.50000 418.400000
6365 14301 9051 1 109.50000 418.400000
6365 14301 9052 1 109.50000 418.400000
8381 14301 9051 1 109.50000 418.400000
8381 14301 9052 1 109.50000 418.400000
9051 14301 9052 1 109.50000 418.400000
2811 14302 5037 1 109.50000 418.400000
2811 14302 7070 1 109.50000 418.400000
2811 14302 9053 1 109.50000 418.400000
5037 14302 7070 1 109.50000 418.400000
5037 14302 9053 1 109.50000 418.400000
7070 14302 9053 1 109.50000 418.400000
1563 14303 9054 1 109.50000 418.400000
1563 14303 9055 1 109.50000 418.400000
1563 14303 11267 1 109.50000 418.400000
9054 14303 9055 1 109.50000 418.400000
9054 14303 11267 1 109.50000 418.400000
9055 14303 11267 1 109.50000 418.400000
722 14304 724 1 109.50000 418.400000
722 14304 2383 1 109.50000 418.400000
722 14304 4214 1 109.50000 418.400000
724 14304 2383 1 109.50000 418.400000
724 14304 4214 1 109.50000 418.400000
2383 14304 4214 1 109.50000 418.400000
5602 14305 7375 1 109.50000 418.400000
5602 14305 8530 1 109.50000 418.400000
5602 14305 9056 1 109.50000 418.400000
7375 14305 8530 1 109.50000 418.400000
7375 14305 9056 1 109.50000 418.400000
8530 14305 9056 1 109.50000 418.400000
6793 14306 9057 1 109.50000 418.400000
6793 14306 9058 1 109.50000 418.400000
6793 14306 9059 1 109.50000 418.400000
9057 14306 9058 1 109.50000 418.400000
9057 14306 9059 1 109.50000 418.400000
9058 14306 9059 1 109.50000 418.400000
7061 14307 7063 1 109.50000 418.400000
7061 14307 8913 1 109.50000 418.400000
7061 14307 9060 1 109.50000 418.400000
7063 14307 8913 1 109.50000 418.400000
7063 14307 9060 1 109.50000 418.400000
8913 14307 9060 1 109.50000 418.400000
6875 14308 9062 1 109.50000 418.400000
6875 14308 9063 1 109.50000 418.400000
6875 14308 9064 1 109.50000 418.400000
9062 14308 9063 1 109.50000 418.400000
9062 14308 9064 1 109.50000 418.400000
9063 14308 9064 1 109.50000 418.400000
1177 14309 2276 1 109.50000 418.400000
1177 14309 6421 1 109.50000 418.400000
1177 14309 9065 1 109.50000 418.400000
2276 14309 6421 1 109.50000 418.400000
2276 14309 9065 1 109.50000 418.400000
6421 14309 9065 1 109.50000 418.400000
1182 14310 2335 1 109.50000 418.400000
1182 14310 6774 1 109.50000 418.400000
1182 14310 9066 1 109.50000 418.400000
2335 14310 6774 1 109.50000 418.400000
2335 14310 9066 1 109.50000 418.400000
6774 14310 9066 1 109.50000 418.400000
3968 14311 6918 1 109.50000 418.400000
3968 14311 9068 1 109.50000 418.400000
3968 14311 10459 1 109.50000 418.400000
6918 14311 9068 1 109.50000 418.400000
6918 14311 10459 1 109.50000 418.400000
9068 14311 10459 1 109.50000 418.400000
4484 14312 4989 1 109.50000 418.400000
4484 14312 9070 1 109.50000 418.400000
4484 14312 9071 1 109.50000 418.400000
4989 14312 9070 1 109.50000 418.400000
4989 14312 9071 1 109.50000 418.400000
9070 14312 9071 1 109.50000 418.400000
4760 14313 4761 1 109.50000 418.400000
4760 14313 8148 1 109.50000 418.400000
4760 14313 9072 1 109.50000 418.400000
4761 14313 8148 1 109.50000 418.400000
4761 14313 9072 1 109.50000 418.400000
8148 14313 9072 1 109.50000 418.400000
4672 14314 5901 1 109.50000 418.400000
4672 14314 9074 1 109.50000 418.400000
4672 14314 9075 1 109.50000 418.400000
5901 14314 9074 1 109.50000 418.400000
5901 14314 9075 1 109.50000 418.400000
9074 14314 9075 1 109.50000 418.400000
9076 14315 9077 1 109.50000 418.400000
9076 14315 9078 1 109.50000 418.400000
9076 14315 9079 1 109.50000 418.400000
9077 14315 9078 1 109.50000 418.400000
9077 14315 9079 1 109.50000 418.400000
9078 14315 9079 1 109.50000 418.400000
4904 14316 9080 1 109.50000 418.400000
4904 14316 9081 1 109.50000 418.400000
4904 14316 9083 1 109.50000 418.400000
9080 14316 9081 1 109.50000 418.400000
9080 14316 9083 1 109.50000 418.400000
9081 14316 9083 1 109.50000 418.400000
5795 14317 7269 1 109.50000 418.400000
5795 14317 8397 1 109.50000 418.400000
5795 14317 9084 1 109.50000 418.400000
7269 14317 8397 1 109.50000 418.400000
7269 14317 9084 1 109.50000 418.400000
8397 14317 9084 1 109.50000 418.400000
3734 14318 5329 1 109.50000 418.400000
3734 14318 6336 1 109.50000 418.400000
3734 14318 6337 1 109.50000 418.400000
5329 14318 6336 1 109.50000 418.400000
5329 14318 6337 1 109.50000 418.400000
6336 14318 6337 1 109.50000 418.400000
6165 14319 6620 1 109.50000 418.400000
6165 14319 6622 1 109.50000 418.400000
6165 14319 9086 1 109.50000 418.400000
6620 14319 6622 1 109.50000 418.400000
6620 14319 9086 1 109.50000 418.400000
6622 14319 9086 1 109.50000 418.400000
453 14320 1519 1 109.50000 418.400000
453 14320 7381 1 109.50000 418.400000
453 14320 9087 1 109.50000 418.400000
1519 14320 7381 1 109.50000 418.400000
1519 14320 9087 1 109.50000 418.400000
7381 14320 9087 1 109.50000 418.400000
435 14321 9091 1 109.50000 418.400000
435 14321 9092 1 109.50000 418.400000
435 14321 9093 1 109.50000 418.400000
9091 14321 9092 1 109.50000 418.400000
9091 14321 9093 1 109.50000 418.400000
9092 14321 9093 1 109.50000 418.400000
5546 14322 9093 1 109.50000 418.400000
5546 14322 9094 1 109.50000 418.400000
5546 14322 9095 1 109.50000 418.400000
9093 14322 9094 1 109.50000 418.400000
9093 14322 9095 1 109.50000 418.400000
9094 14322 9095 1 109.50000 418.400000
6499 14323 9081 1 109.50000 418.400000
6499 14323 9096 1 109.50000 418.400000
6499 14323 9097 1 109.50000 418.400000
9081 14323 9096 1 109.50000 418.400000
9081 14323 9097 1 109.50000 418.400000
9096 14323 9097 1 109.50000 418.400000
3605 14324 8424 1 109.50000 418.400000
3605 14324 9099 1 109.50000 418.400000
3605 14324 9100 1 109.50000 418.400000
8424 14324 9099 1 109.50000 418.400000
8424 14324 9100 1 109.50000 418.400000
9099 14324 9100 1 109.50000 418.400000
5564 14325 6312 1 109.50000 418.400000
5564 14325 9101 1 109.50000 418.400000
5564 14325 9102 1 109.50000 418.400000
6312 14325 9101 1 109.50000 418.400000
6312 14325 9102 1 109.50000 418.400000
9101 14325 9102 1 109.50000 418.400000
7202 14326 9105 1 109.50000 418.400000
7202 14326 9106 1 109.50000 418.400000
7202 14326 9107 1 109.50000 418.400000
9105 14326 9106 1 109.50000 418.400000
9105 14326 9107 1 109.50000 418.400000
9106 14326 9107 1 109.50000 418.400000
4428 14327 7498 1 109.50000 418.400000
4428 14327 7518 1 109.50000 418.400000
4428 14327 9108 1 109.50000 418.400000
7498 14327 7518 1 109.50000 418.400000
7498 14327 9108 1 109.50000 418.400000
7518 14327 9108 1 109.50000 418.400000
6708 14328 8322 1 109.50000 418.400000
6708 14328 9060 1 109.50000 418.400000
6708 14328 9109 1 109.50000 418.400000
8322 14328 9060 1 109.50000 418.400000
8322 14328 9109 1 109.50000 418.400000
9060 14328 9109 1 109.50000 418.400000
6174 14329 7712 1 109.50000 418.400000
6174 14329 9110 1 109.50000 418.400000
6174 14329 9112 1 109.50000 418.400000
7712 14329 9110 1 109.50000 418.400000
7712 14329 9112 1 109.50000 418.400000
9110 14329 9112 1 109.50000 418.400000
5942 14330 6487 1 109.50000 418.400000
5942 14330 6488 1 109.50000 418.400000
5942 14330 9113 1 109.50000 418.400000
6487 14330 6488 1 109.50000 418.400000
6487 14330 9113 1 109.50000 418.400000
6488 14330 9113 1 109.50000 418.400000
4219 14331 9114 1 109.50000 418.400000
4219 14331 9115 1 109.50000 418.400000
4219 14331 9116 1 109.50000 418.400000
9114 14331 9115 1 109.50000 418.400000
9114 14331 9116 1 109.50000 418.400000
9115 14331 9116 1 109.50000 418.400000
7786 14332 9117 1 109.50000 418.400000
7786 14332 9118 1 109.50000 418.400000
7786 14332 9120 1 109.50000 418.400000
9117 14332 9118 1 109.50000 418.400000
9117 14332 9120 1 109.50000 418.400000
9118 14332 9120 1 109.50000 418.400000
7724 14333 8033 1 109.50000 418.400000
7724 14333 9121 1 109.50000 418.400000
7724 14333 9122 1 109.50000 418.400000
8033 14333 9121 1 109.50000 418.400000
8033 14333 9122 1 109.50000 418.400000
9121 14333 9122 1 109.50000 418.400000
5042 14334 9123 1 109.50000 418.400000
5042 14334 9124 1 109.50000 418.400000
5042 14334 9125 1 109.50000 418.400000
9123 14334 9124 1 109.50000 418.400000
9123 14334 9125 1 109.50000 418.400000
9124 14334 9125 1 109.50000 418.400000
3205 14335 9107 1 109.50000 418.400000
3205 14335 9127 1 109.50000 418.400000
3205 14335 9128 1 109.50000 418.400000
9107 14335 9127 1 109.50000 418.400000
9107 14335 9128 1 109.50000 418.400000
9127 14335 9128 1 109.50000 418.400000
1192 14336 5619 1 109.50000 418.400000
1192 14336 5625 1 109.50000 418.400000
1192 14336 7699 1 109.50000 418.400000
5619 14336 5625 1 109.50000 418.400000
5619 14336 7699 1 109.50000 418.400000
5625 14336 7699 1 109.50000 418.400000
1378 14337 4375 1 109.50000 418.400000
1378 14337 8737 1 109.50000 418.400000
1378 14337 9129 1 109.50000 418.400000
4375 14337 8737 1 109.50000 418.400000
4375 14337 9129 1 109.50000 418.400000
8737 14337 9129 1 109.50000 418.400000
9130 14338 9131 1 109.50000 418.400000
9130 14338 9132 1 109.50000 418.400000
9130 14338 9133 1 109.50000 418.400000
9131 14338 9132 1 109.50000 418.400000
9131 14338 9133 1 109.50000 418.400000
9132 14338 9133 1 109.50000 418.400000
1621 14339 2525 1 109.50000 418.400000
1621 14339 7275 1 109.50000 418.400000
1621 14339 8699 1 109.50000 418.400000
2525 14339 7275 1 109.50000 418.400000
2525 14339 8699 1 109.50000 418.400000
7275 14339 8699 1 109.50000 418.400000
3326 14340 3328 1 109.50000 418.400000
3326 14340 4686 1 109.50000 418.400000
3326 14340 4893 1 109.50000 418.400000
3328 14340 4686 1 109.50000 418.400000
3328 14340 4893 1 109.50000 418.400000
4686 14340 4893 1 109.50000 418.400000
1334 14341 3691 1 109.50000 418.400000
1334 14341 9135 1 109.50000 418.400000
1334 14341 9136 1 109.50000 418.400000
3691 14341 9135 1 109.50000 418.400000
3691 14341 9136 1 109.50000 418.400000
9135 14341 9136 1 109.50000 418.400000
1445 14342 7010 1 109.50000 418.400000
1445 14342 9137 1 109.50000 418.400000
1445 14342 9138 1 109.50000 418.400000
7010 14342 9137 1 109.50000 418.400000
7010 14342 9138 1 109.50000 418.400000
9137 14342 9138 1 109.50000 418.400000
2827 14343 5097 1 109.50000 418.400000
2827 14343 7206 1 109.50000 418.400000
2827 14343 9141 1 109.50000 418.400000
5097 14343 7206 1 109.50000 418.400000
5097 14343 9141 1 109.50000 418.400000
7206 14343 9141 1 109.50000 418.400000
2076 14344 8157 1 109.50000 418.400000
2076 14344 9019 1 109.50000 418.400000
2076 14344 9142 1 109.50000 418.400000
8157 14344 9019 1 109.50000 418.400000
8157 14344 9142 1 109.50000 418.400000
9019 14344 9142 1 109.50000 418.400000
367 14345 7898 1 109.50000 418.400000
367 14345 8366 1 109.50000 418.400000
367 14345 9145 1 109.50000 418.400000
7898 14345 8366 1 109.50000 418.400000
7898 14345 9145 1 109.50000 418.400000
8366 14345 9145 1 109.50000 418.400000
2881 14346 3960 1 109.50000 418.400000
2881 14346 7867 1 109.50000 418.400000
2881 14346 7993 1 109.50000 418.400000
3960 14346 7867 1 109.50000 418.400000
3960 14346 7993 1 109.50000 418.400000
7867 14346 7993 1 109.50000 418.400000
2489 14347 5655 1 109.50000 418.400000
2489 14347 8753 1 109.50000 418.400000
2489 14347 9148 1 109.50000 418.400000
5655 14347 8753 1 109.50000 418.400000
5655 14347 9148 1 109.50000 418.400000
8753 14347 9148 1 109.50000 418.400000
5605 14348 9149 1 109.50000 418.400000
5605 14348 9150 1 109.50000 418.400000
5605 14348 9151 1 109.50000 418.400000
9149 14348 9150 1 109.50000 418.400000
9149 14348 9151 1 109.50000 418.400000
9150 14348 9151 1 109.50000 418.400000
7420 14349 9152 1 109.50000 418.400000
7420 14349 9153 1 109.50000 418.400000
7420 14349 9154 1 109.50000 418.400000
9152 14349 9153 1 109.50000 418.400000
9152 14349 9154 1 109.50000 418.400000
9153 14349 9154 1 109.50000 418.400000
4625 14350 5562 1 109.50000 418.400000
4625 14350 7334 1 109.50000 418.400000
4625 14350 9155 1 109.50000 418.400000
5562 14350 7334 1 109.50000 418.400000
5562 14350 9155 1 109.50000 418.400000
7334 14350 9155 1 109.50000 418.400000
1505 14351 3583 1 109.50000 418.400000
1505 14351 9156 1 109.50000 418.400000
1505 14351 9157 1 109.50000 418.400000
3583 14351 9156 1 109.50000 418.400000
3583 14351 9157 1 109.50000 418.400000
9156 14351 9157 1 109.50000 418.400000
2505 14352 2507 1 109.50000 418.400000
2505 14352 5438 1 109.50000 418.400000
2505 14352 9158 1 109.50000 418.400000
2507 14352 5438 1 109.50000 418.400000
2507 14352 9158 1 109.50000 418.400000
5438 14352 9158 1 109.50000 418.400000
7748 14353 9160 1 109.50000 418.400000
7748 14353 9161 1 109.50000 418.400000
7748 14353 9162 1 109.50000 418.400000
9160 14353 9161 1 109.50000 418.400000
9160 14353 9162 1 109.50000 418.400000
9161 14353 9162 1 109.50000 418.400000
3431 14354 9163 1 109.50000 418.400000
3431 14354 9164 1 109.50000 418.400000
3431 14354 9165 1 109.50000 418.400000
9163 14354 9164 1 109.50000 418.400000
9163 14354 9165 1 109.50000 418.400000
9164 14354 9165 1 109.50000 418.400000
8258 14355 8871 1 109.50000 418.400000
8258 14355 9166 1 109.50000 418.400000
8258 14355 9167 1 109.50000 418.400000
8871 14355 9166 1 109.50000 418.400000
8871 14355 9167 1 109.50000 418.400000
9166 14355 9167 1 109.50000 418.400000
2163 14356 4480 1 109.50000 418.400000
2163 14356 5434 1 109.50000 418.400000
2163 14356 9110 1 109.50000 418.400000
4480 14356 5434 1 109.50000 418.400000
4480 14356 9110 1 109.50000 418.400000
5434 14356 9110 1 109.50000 418.400000
351 14357 1775 1 109.50000 418.400000
351 14357 2869 1 109.50000 418.400000
351 14357 9169 1 109.50000 418.400000
1775 14357 2869 1 109.50000 418.400000
1775 14357 9169 1 109.50000 418.400000
2869 14357 9169 1 109.50000 418.400000
1058 14358 6661 1 109.50000 418.400000
1058 14358 7014 1 109.50000 418.400000
1058 14358 9084 1 109.50000 418.400000
6661 14358 7014 1 109.50000 418.400000
6661 14358 9084 1 109.50000 418.400000
7014 14358 9084 1 109.50000 418.400000
3911 14359 8395 1 109.50000 418.400000
3911 14359 9170 1 109.50000 418.400000
3911 14359 9171 1 109.50000 418.400000
8395 14359 9170 1 109.50000 418.400000
8395 14359 9171 1 109.50000 418.400000
9170 14359 9171 1 109.50000 418.400000
786 14360 2180 1 109.50000 418.400000
786 14360 3607 1 109.50000 418.400000
786 14360 9173 1 109.50000 418.400000
2180 14360 3607 1 109.50000 418.400000
2180 14360 9173 1 109.50000 418.400000
3607 14360 9173 1 109.50000 418.400000
6253 14361 7246 1 109.50000 418.400000
6253 14361 9176 1 109.50000 418.400000
6253 14361 9177 1 109.50000 418.400000
7246 14361 9176 1 109.50000 418.400000
7246 14361 9177 1 109.50000 418.400000
9176 14361 9177 1 109.50000 418.400000
7495 14362 7857 1 109.50000 418.400000
7495 14362 8721 1 109.50000 418.400000
7495 14362 9178 1 109.50000 418.400000
7857 14362 8721 1 109.50000 418.400000
7857 14362 9178 1 109.50000 418.400000
8721 14362 9178 1 109.50000 418.400000
8105 14363 8106 1 109.50000 418.400000
8105 14363 9179 1 109.50000 418.400000
8105 14363 9181 1 109.50000 418.400000
8106 14363 9179 1 109.50000 418.400000
8106 14363 9181 1 109.50000 418.400000
9179 14363 9181 1 109.50000 418.400000
888 14364 8499 1 109.50000 418.400000
888 14364 9182 1 109.50000 418.400000
888 14364 10755 1 109.50000 418.400000
8499 14364 9182 1 109.50000 418.400000
8499 14364 10755 1 109.50000 418.400000
9182 14364 10755 1 109.50000 418.400000
4467 14365 7166 1 109.50000 418.400000
4467 14365 7779 1 109.50000 418.400000
4467 14365 8461 1 109.50000 418.400000
7166 14365 7779 1 109.50000 418.400000
7166 14365 8461 1 109.50000 418.400000
7779 14365 8461 1 109.50000 418.400000
4434 14366 6199 1 109.50000 418.400000
4434 14366 9183 1 109.50000 418.400000
4434 14366 9184 1 109.50000 418.400000
6199 14366 9183 1 109.50000 418.400000
6199 14366 9184 1 109.50000 418.400000
9183 14366 9184 1 109.50000 418.400000
1647 14367 6689 1 109.50000 418.400000
1647 14367 8503 1 109.50000 418.400000
1647 14367 9185 1 109.50000 418.400000
6689 14367 8503 1 109.50000 418.400000
6689 14367 9185 1 109.50000 418.400000
8503 14367 9185 1 109.50000 418.400000
2001 14368 2545 1 109.50000 418.400000
2001 14368 7946 1 109.50000 418.400000
2001 14368 8034 1 109.50000 418.400000
2545 14368 7946 1 109.50000 418.400000
2545 14368 8034 1 109.50000 418.400000
7946 14368 8034 1 109.50000 418.400000
2910 14369 4299 1 109.50000 418.400000
2910 14369 5482 1 109.50000 418.400000
2910 14369 9186 1 109.50000 418.400000
4299 14369 5482 1 109.50000 418.400000
4299 14369 9186 1 109.50000 418.400000
5482 14369 9186 1 109.50000 418.400000
4999 14370 5713 1 109.50000 418.400000
4999 14370 7644 1 109.50000 418.400000
4999 14370 9187 1 109.50000 418.400000
5713 14370 7644 1 109.50000 418.400000
5713 14370 9187 1 109.50000 418.400000
7644 14370 9187 1 109.50000 418.400000
5584 14371 7481 1 109.50000 418.400000
5584 14371 8765 1 109.50000 418.400000
5584 14371 9188 1 109.50000 418.400000
7481 14371 8765 1 109.50000 418.400000
7481 14371 9188 1 109.50000 418.400000
8765 14371 9188 1 109.50000 418.400000
3018 14372 3390 1 109.50000 418.400000
3018 14372 8539 1 109.50000 418.400000
3018 14372 9192 1 109.50000 418.400000
3390 14372 8539 1 109.50000 418.400000
3390 14372 9192 1 109.50000 418.400000
8539 14372 9192 1 109.50000 418.400000
2159 14373 6561 1 109.50000 418.400000
2159 14373 8370 1 109.50000 418.400000
2159 14373 9195 1 109.50000 418.400000
6561 14373 8370 1 109.50000 418.400000
6561 14373 9195 1 109.50000 418.400000
8370 14373 9195 1 109.50000 418.400000
5531 14374 8263 1 109.50000 418.400000
5531 14374 9196 1 109.50000 418.400000
5531 14374 9197 1 109.50000 418.400000
8263 14374 9196 1 109.50000 418.400000
8263 14374 9197 1 109.50000 418.400000
9196 14374 9197 1 109.50000 418.400000
4827 14375 9198 1 109.50000 418.400000
4827 14375 9199 1 109.50000 418.400000
4827 14375 9200 1 109.50000 418.400000
9198 14375 9199 1 109.50000 418.400000
9198 14375 9200 1 109.50000 418.400000
9199 14375 9200 1 109.50000 418.400000
5375 14376 7144 1 109.50000 418.400000
5375 14376 9201 1 109.50000 418.400000
5375 14376 9202 1 109.50000 418.400000
7144 14376 9201 1 109.50000 418.400000
7144 14376 9202 1 109.50000 418.400000
9201 14376 9202 1 109.50000 418.400000
2977 14377 8293 1 109.50000 418.400000
2977 14377 9203 1 109.50000 418.400000
2977 14377 9204 1 109.50000 418.400000
8293 14377 9203 1 109.50000 418.400000
8293 14377 9204 1 109.50000 418.400000
9203 14377 9204 1 109.50000 418.400000
1522 14378 5271 1 109.50000 418.400000
1522 14378 9205 1 109.50000 418.400000
1522 14378 9206 1 109.50000 418.400000
5271 14378 9205 1 109.50000 418.400000
5271 14378 9206 1 109.50000 418.400000
9205 14378 9206 1 109.50000 418.400000
398 14379 400 1 109.50000 418.400000
398 14379 2911 1 109.50000 418.400000
398 14379 6209 1 109.50000 418.400000
400 14379 2911 1 109.50000 418.400000
400 14379 6209 1 109.50000 418.400000
2911 14379 6209 1 109.50000 418.400000
778 14380 9207 1 109.50000 418.400000
778 14380 9208 1 109.50000 418.400000
778 14380 9209 1 109.50000 418.400000
9207 14380 9208 1 109.50000 418.400000
9207 14380 9209 1 109.50000 418.400000
9208 14380 9209 1 109.50000 418.400000
597 14381 9210 1 109.50000 418.400000
597 14381 9211 1 109.50000 418.400000
597 14381 9212 1 109.50000 418.400000
9210 14381 9211 1 109.50000 418.400000
9210 14381 9212 1 109.50000 418.400000
9211 14381 9212 1 109.50000 418.400000
3187 14382 5684 1 109.50000 418.400000
3187 14382 5911 1 109.50000 418.400000
3187 14382 9213 1 109.50000 418.400000
5684 14382 5911 1 109.50000 418.400000
5684 14382 9213 1 109.50000 418.400000
5911 14382 9213 1 109.50000 418.400000
2071 14383 5035 1 109.50000 418.400000
2071 14383 5076 1 109.50000 418.400000
2071 14383 9214 1 109.50000 418.400000
5035 14383 5076 1 109.50000 418.400000
5035 14383 9214 1 109.50000 418.400000
5076 14383 9214 1 109.50000 418.400000
6185 14384 9215 1 109.50000 418.400000
6185 14384 9362 1 109.50000 418.400000
6185 14384 10920 1 109.50000 418.400000
9215 14384 9362 1 109.50000 418.400000
9215 14384 10920 1 109.50000 418.400000
9362 14384 10920 1 109.50000 418.400000
3597 14385 8501 1 109.50000 418.400000
3597 14385 8777 1 109.50000 418.400000
3597 14385 9218 1 109.50000 418.400000
8501 14385 8777 1 109.50000 418.400000
8501 14385 9218 1 109.50000 418.400000
8777 14385 9218 1 109.50000 418.400000
2782 14386 6255 1 109.50000 418.400000
2782 14386 8254 1 109.50000 418.400000
2782 14386 9219 1 109.50000 418.400000
6255 14386 8254 1 109.50000 418.400000
6255 14386 9219 1 109.50000 418.400000
8254 14386 9219 1 109.50000 418.400000
3319 14387 6208 1 109.50000 418.400000
3319 14387 9220 1 109.50000 418.400000
3319 14387 9221 1 109.50000 418.400000
6208 14387 9220 1 109.50000 418.400000
6208 14387 9221 1 109.50000 418.400000
9220 14387 9221 1 109.50000 418.400000
1311 14388 1320 1 109.50000 418.400000
1311 14388 6637 1 109.50000 418.400000
1311 14388 9222 1 109.50000 418.400000
1320 14388 6637 1 109.50000 418.400000
1320 14388 9222 1 109.50000 418.400000
6637 14388 9222 1 109.50000 418.400000
1902 14389 1905 1 109.50000 418.400000
1902 14389 9223 1 109.50000 418.400000
1902 14389 9224 1 109.50000 418.400000
1905 14389 9223 1 109.50000 418.400000
1905 14389 9224 1 109.50000 418.400000
9223 14389 9224 1 109.50000 418.400000
4335 14390 4788 1 109.50000 418.400000
4335 14390 6777 1 109.50000 418.400000
4335 14390 9225 1 109.50000 418.400000
4788 14390 6777 1 109.50000 418.400000
4788 14390 9225 1 109.50000 418.400000
6777 14390 9225 1 109.50000 418.400000
2750 14391 8051 1 109.50000 418.400000
2750 14391 9226 1 109.50000 418.400000
2750 14391 9227 1 109.50000 418.400000
8051 14391 9226 1 109.50000 418.400000
8051 14391 9227 1 109.50000 418.400000
9226 14391 9227 1 109.50000 418.400000
6797 14392 7227 1 109.50000 418.400000
6797 14392 8066 1 109.50000 418.400000
6797 14392 9228 1 109.50000 418.400000
7227 14392 8066 1 109.50000 418.400000
7227 14392 9228 1 109.50000 418.400000
8066 14392 9228 1 109.50000 418.400000
1477 14393 9229 1 109.50000 418.400000
1477 14393 9230 1 109.50000 418.400000
1477 14393 9231 1 109.50000 418.400000
9229 14393 9230 1 109.50000 418.400000
9229 14393 9231 1 109.50000 418.400000
9230 14393 9231 1 109.50000 418.400000
2084 14394 3816 1 109.50000 418.400000
2084 14394 5748 1 109.50000 418.400000
2084 14394 7106 1 109.50000 418.400000
3816 14394 5748 1 109.50000 418.400000
3816 14394 7106 1 109.50000 418.400000
5748 14394 7106 1 109.50000 418.400000
906 14395 909 1 109.50000 418.400000
906 14395 6923 1 109.50000 418.400000
906 14395 6924 1 109.50000 418.400000
909 14395 6923 1 109.50000 418.400000
909 14395 6924 1 109.50000 418.400000
6923 14395 6924 1 109.50000 418.400000
5125 14396 6770 1 109.50000 418.400000
5125 14396 9232 1 109.50000 418.400000
5125 14396 9233 1 109.50000 418.400000
6770 14396 9232 1 109.50000 418.400000
6770 14396 9233 1 109.50000 418.400000
9232 14396 9233 1 109.50000 418.400000
386 14397 4588 1 109.50000 418.400000
386 14397 8021 1 109.50000 418.400000
386 14397 9219 1 109.50000 418.400000
4588 14397 8021 1 109.50000 418.400000
4588 14397 9219 1 109.50000 418.400000
8021 14397 9219 1 109.50000 418.400000
455 14398 5669 1 109.50000 418.400000
455 14398 9234 1 109.50000 418.400000
455 14398 9235 1 109.50000 418.400000
5669 14398 9234 1 109.50000 418.400000
5669 14398 9235 1 109.50000 418.400000
9234 14398 9235 1 109.50000 418.400000
616 14399 8056 1 109.50000 418.400000
616 14399 9236 1 109.50000 418.400000
616 14399 9237 1 109.50000 418.400000
8056 14399 9236 1 109.50000 418.400000
8056 14399 9237 1 109.50000 418.400000
9236 14399 9237 1 109.50000 418.400000
4622 14400 5687 1 109.50000 418.400000
4622 14400 9238 1 109.50000 418.400000
4622 14400 9239 1 109.50000 418.400000
5687 14400 9238 1 109.50000 418.400000
5687 14400 9239 1 109.50000 418.400000
9238 14400 9239 1 109.50000 418.400000
2168 14401 9240 1 109.50000 418.400000
2168 14401 9241 1 109.50000 418.400000
2168 14401 9242 1 109.50000 418.400000
9240 14401 9241 1 109.50000 418.400000
9240 14401 9242 1 109.50000 418.400000
9241 14401 9242 1 109.50000 418.400000
5098 14402 7235 1 109.50000 418.400000
5098 14402 9243 1 109.50000 418.400000
5098 14402 9244 1 109.50000 418.400000
7235 14402 9243 1 109.50000 418.400000
7235 14402 9244 1 109.50000 418.400000
9243 14402 9244 1 109.50000 418.400000
3412 14403 9245 1 109.50000 418.400000
3412 14403 9246 1 109.50000 418.400000
3412 14403 9247 1 109.50000 418.400000
9245 14403 9246 1 109.50000 418.400000
9245 14403 9247 1 109.50000 418.400000
9246 14403 9247 1 109.50000 418.400000
7040 14404 9248 1 109.50000 418.400000
7040 14404 9249 1 109.50000 418.400000
7040 14404 9250 1 109.50000 418.400000
9248 14404 9249 1 109.50000 418.400000
9248 14404 9250 1 109.50000 418.400000
9249 14404 9250 1 109.50000 418.400000
2503 14405 8525 1 109.50000 418.400000
2503 14405 9251 1 109.50000 418.400000
2503 14405 9252 1 109.50000 418.400000
8525 14405 9251 1 109.50000 418.400000
8525 14405 9252 1 109.50000 418.400000
9251 14405 9252 1 109.50000 418.400000
4421 14406 6606 1 109.50000 418.400000
4421 14406 7682 1 109.50000 418.400000
4421 14406 9253 1 109.50000 418.400000
6606 14406 7682 1 109.50000 418.400000
6606 14406 9253 1 109.50000 418.400000
7682 14406 9253 1 109.50000 418.400000
6044 14407 7352 1 109.50000 418.400000
6044 14407 9255 1 109.50000 418.400000
6044 14407 9256 1 109.50000 418.400000
7352 14407 9255 1 109.50000 418.400000
7352 14407 9256 1 109.50000 418.400000
9255 14407 9256 1 109.50000 418.400000
472 14408 5524 1 109.50000 418.400000
472 14408 9257 1 109.50000 418.400000
472 14408 9258 1 109.50000 418.400000
5524 14408 9257 1 109.50000 418.400000
5524 14408 9258 1 109.50000 418.400000
9257 14408 9258 1 109.50000 418.400000
5757 14409 7292 1 109.50000 418.400000
5757 14409 9259 1 109.50000 418.400000
5757 14409 9260 1 109.50000 418.400000
7292 14409 9259 1 109.50000 418.400000
7292 14409 9260 1 109.50000 418.400000
9259 14409 9260 1 109.50000 418.400000
4716 14410 4892 1 109.50000 418.400000
4716 14410 9261 1 109.50000 418.400000
4716 14410 9262 1 109.50000 418.400000
4892 14410 9261 1 109.50000 418.400000
4892 14410 9262 1 109.50000 418.400000
9261 14410 9262 1 109.50000 418.400000
2096 14411 6192 1 109.50000 418.400000
2096 14411 9249 1 109.50000 418.400000
2096 14411 9265 1 109.50000 418.400000
6192 14411 9249 1 109.50000 418.400000
6192 14411 9265 1 109.50000 418.400000
9249 14411 9265 1 109.50000 418.400000
302 14412 3673 1 109.50000 418.400000
302 14412 7089 1 109.50000 418.400000
302 14412 9063 1 109.50000 418.400000
3673 14412 7089 1 109.50000 418.400000
3673 14412 9063 1 109.50000 418.400000
7089 14412 9063 1 109.50000 418.400000
6857 14413 9266 1 109.50000 418.400000
6857 14413 9267 1 109.50000 418.400000
6857 14413 9268 1 109.50000 418.400000
9266 14413 9267 1 109.50000 418.400000
9266 14413 9268 1 109.50000 418.400000
9267 14413 9268 1 109.50000 418.400000
3919 14414 6397 1 109.50000 418.400000
3919 14414 9012 1 109.50000 418.400000
3919 14414 9270 1 109.50000 418.400000
6397 14414 9012 1 109.50000 418.400000
6397 14414 9270 1 109.50000 418.400000
9012 14414 9270 1 109.50000 418.400000
7044 14415 9272 1 109.50000 418.400000
7044 14415 9273 1 109.50000 418.400000
7044 14415 9274 1 109.50000 418.400000
9272 14415 9273 1 109.50000 418.400000
9272 14415 9274 1 109.50000 418.400000
9273 14415 9274 1 109.50000 418.400000
1219 14416 4551 1 109.50000 418.400000
1219 14416 5837 1 109.50000 418.400000
1219 14416 9275 1 109.50000 418.400000
4551 14416 5837 1 109.50000 418.400000
4551 14416 9275 1 109.50000 418.400000
5837 14416 9275 1 109.50000 418.400000
4515 14417 8601 1 109.50000 418.400000
4515 14417 9276 1 109.50000 418.400000
4515 14417 11242 1 109.50000 418.400000
8601 14417 9276 1 109.50000 418.400000
8601 14417 11242 1 109.50000 418.400000
9276 14417 11242 1 109.50000 418.400000
184 14418 278 1 109.50000 418.400000
184 14418 3009 1 109.50000 418.400000
184 14418 9277 1 109.50000 418.400000
278 14418 3009 1 109.50000 418.400000
278 14418 9277 1 109.50000 418.400000
3009 14418 9277 1 109.50000 418.400000
3573 14419 4475 1 109.50000 418.400000
3573 14419 7572 1 109.50000 418.400000
3573 14419 9278 1 109.50000 418.400000
4475 14419 7572 1 109.50000 418.400000
4475 14419 9278 1 109.50000 418.400000
7572 14419 9278 1 109.50000 418.400000
265 14420 9279 1 109.50000 418.400000
265 14420 9280 1 109.50000 418.400000
265 14420 9281 1 109.50000 418.400000
9279 14420 9280 1 109.50000 418.400000
9279 14420 9281 1 109.50000 418.400000
9280 14420 9281 1 109.50000 418.400000
1997 14421 2669 1 109.50000 418.400000
1997 14421 8796 1 109.50000 418.400000
1997 14421 9282 1 109.50000 418.400000
2669 14421 8796 1 109.50000 418.400000
2669 14421 9282 1 109.50000 418.400000
8796 14421 9282 1 109.50000 418.400000
1454 14422 2473 1 109.50000 418.400000
1454 14422 4854 1 109.50000 418.400000
1454 14422 5444 1 109.50000 418.400000
2473 14422 4854 1 109.50000 418.400000
2473 14422 5444 1 109.50000 418.400000
4854 14422 5444 1 109.50000 418.400000
354 14423 1839 1 109.50000 418.400000
354 14423 6493 1 109.50000 418.400000
354 14423 9285 1 109.50000 418.400000
1839 14423 6493 1 109.50000 418.400000
1839 14423 9285 1 109.50000 418.400000
6493 14423 9285 1 109.50000 418.400000
6460 14424 7333 1 109.50000 418.400000
6460 14424 9287 1 109.50000 418.400000
6460 14424 9288 1 109.50000 418.400000
7333 14424 9287 1 109.50000 418.400000
7333 14424 9288 1 109.50000 418.400000
9287 14424 9288 1 109.50000 418.400000
7392 14425 9289 1 109.50000 418.400000
7392 14425 9290 1 109.50000 418.400000
7392 14425 9291 1 109.50000 418.400000
9289 14425 9290 1 109.50000 418.400000
9289 14425 9291 1 109.50000 418.400000
9290 14425 9291 1 109.50000 418.400000
1359 14426 9213 1 109.50000 418.400000
1359 14426 9292 1 109.50000 418.400000
1359 14426 9293 1 109.50000 418.400000
9213 14426 9292 1 109.50000 418.400000
9213 14426 9293 1 109.50000 418.400000
9292 14426 9293 1 109.50000 418.400000
4747 14427 7608 1 109.50000 418.400000
4747 14427 8320 1 109.50000 418.400000
4747 14427 8835 1 109.50000 418.400000
7608 14427 8320 1 109.50000 418.400000
7608 14427 8835 1 109.50000 418.400000
8320 14427 8835 1 109.50000 418.400000
1682 14428 4350 1 109.50000 418.400000
1682 14428 6725 1 109.50000 418.400000
1682 14428 9294 1 109.50000 418.400000
4350 14428 6725 1 109.50000 418.400000
4350 14428 9294 1 109.50000 418.400000
6725 14428 9294 1 109.50000 418.400000
604 14429 6948 1 109.50000 418.400000
604 14429 9295 1 109.50000 418.400000
604 14429 9296 1 109.50000 418.400000
6948 14429 9295 1 109.50000 418.400000
6948 14429 9296 1 109.50000 418.400000
9295 14429 9296 1 109.50000 418.400000
2593 14430 9297 1 109.50000 418.400000
2593 14430 9298 1 109.50000 418.400000
2593 14430 9299 1 109.50000 418.400000
9297 14430 9298 1 109.50000 418.400000
9297 14430 9299 1 109.50000 418.400000
9298 14430 9299 1 109.50000 418.400000
2978 14431 6429 1 109.50000 418.400000
2978 14431 9300 1 109.50000 418.400000
2978 14431 9301 1 109.50000 418.400000
6429 14431 9300 1 109.50000 418.400000
6429 14431 9301 1 109.50000 418.400000
9300 14431 9301 1 109.50000 418.400000
1851 14432 8192 1 109.50000 418.400000
1851 14432 9302 1 109.50000 418.400000
1851 14432 9303 1 109.50000 418.400000
8192 14432 9302 1 109.50000 418.400000
8192 14432 9303 1 109.50000 418.400000
9302 14432 9303 1 109.50000 418.400000
5768 14433 8204 1 109.50000 418.400000
5768 14433 9280 1 109.50000 418.400000
5768 14433 9304 1 109.50000 418.400000
8204 14433 9280 1 109.50000 418.400000
8204 14433 9304 1 109.50000 418.400000
9280 14433 9304 1 109.50000 418.400000
793 14434 9305 1 109.50000 418.400000
793 14434 9306 1 109.50000 418.400000
793 14434 9307 1 109.50000 418.400000
9305 14434 9306 1 109.50000 418.400000
9305 14434 9307 1 109.50000 418.400000
9306 14434 9307 1 109.50000 418.400000
3272 14435 7165 1 109.50000 418.400000
3272 14435 8890 1 109.50000 418.400000
3272 14435 9308 1 109.50000 418.400000
7165 14435 8890 1 109.50000 418.400000
7165 14435 9308 1 109.50000 418.400000
8890 14435 9308 1 109.50000 418.400000
857 14436 6099 1 109.50000 418.400000
857 14436 8573 1 109.50000 418.400000
857 14436 8701 1 109.50000 418.400000
6099 14436 8573 1 109.50000 418.400000
6099 14436 8701 1 109.50000 418.400000
8573 14436 8701 1 109.50000 418.400000
1842 14437 3856 1 109.50000 418.400000
1842 14437 8779 1 109.50000 418.400000
1842 14437 9309 1 109.50000 418.400000
3856 14437 8779 1 109.50000 418.400000
3856 14437 9309 1 109.50000 418.400000
8779 14437 9309 1 109.50000 418.400000
3985 14438 6083 1 109.50000 418.400000
3985 14438 9310 1 109.50000 418.400000
3985 14438 9311 1 109.50000 418.400000
6083 14438 9310 1 109.50000 418.400000
6083 14438 9311 1 109.50000 418.400000
9310 14438 9311 1 109.50000 418.400000
8168 14439 9312 1 109.50000 418.400000
8168 14439 9313 1 109.50000 418.400000
8168 14439 9314 1 109.50000 418.400000
9312 14439 9313 1 109.50000 418.400000
9312 14439 9314 1 109.50000 418.400000
9313 14439 9314 1 109.50000 418.400000
2664 14440 7415 1 109.50000 418.400000
2664 14440 8216 1 109.50000 418.400000
2664 14440 8217 1 109.50000 418.400000
7415 14440 8216 1 109.50000 418.400000
7415 14440 8217 1 109.50000 418.400000
8216 14440 8217 1 109.50000 418.400000
5511 14441 8695 1 109.50000 418.400000
5511 14441 9315 1 109.50000 418.400000
5511 14441 9316 1 109.50000 418.400000
8695 14441 9315 1 109.50000 418.400000
8695 14441 9316 1 109.50000 418.400000
9315 14441 9316 1 109.50000 418.400000
1965 14442 2371 1 109.50000 418.400000
1965 14442 3102 1 109.50000 418.400000
1965 14442 9317 1 109.50000 418.400000
2371 14442 3102 1 109.50000 418.400000
2371 14442 9317 1 109.50000 418.400000
3102 14442 9317 1 109.50000 418.400000
6301 14443 7641 1 109.50000 418.400000
6301 14443 8868 1 109.50000 418.400000
6301 14443 9085 1 109.50000 418.400000
7641 14443 8868 1 109.50000 418.400000
7641 14443 9085 1 109.50000 418.400000
8868 14443 9085 1 109.50000 418.400000
1400 14444 6249 1 109.50000 418.400000
1400 14444 6542 1 109.50000 418.400000
1400 14444 8857 1 109.50000 418.400000
6249 14444 6542 1 109.50000 418.400000
6249 14444 8857 1 109.50000 418.400000
6542 14444 8857 1 109.50000 418.400000
6085 14445 9318 1 109.50000 418.400000
6085 14445 9319 1 109.50000 418.400000
6085 14445 9320 1 109.50000 418.400000
9318 14445 9319 1 109.50000 418.400000
9318 14445 9320 1 109.50000 418.400000
9319 14445 9320 1 109.50000 418.400000
6546 14446 7320 1 109.50000 418.400000
6546 14446 9321 1 109.50000 418.400000
6546 14446 9322 1 109.50000 418.400000
7320 14446 9321 1 109.50000 418.400000
7320 14446 9322 1 109.50000 418.400000
9321 14446 9322 1 109.50000 418.400000
3070 14447 5523 1 109.50000 418.400000
3070 14447 5603 1 109.50000 418.400000
3070 14447 9323 1 109.50000 418.400000
5523 14447 5603 1 109.50000 418.400000
5523 14447 9323 1 109.50000 418.400000
5603 14447 9323 1 109.50000 418.400000
1084 14448 8891 1 109.50000 418.400000
1084 14448 9324 1 109.50000 418.400000
1084 14448 9325 1 109.50000 418.400000
8891 14448 9324 1 109.50000 418.400000
8891 14448 9325 1 109.50000 418.400000
9324 14448 9325 1 109.50000 418.400000
7339 14449 7448 1 109.50000 418.400000
7339 14449 7743 1 109.50000 418.400000
7339 14449 9138 1 109.50000 418.400000
7448 14449 7743 1 109.50000 418.400000
7448 14449 9138 1 109.50000 418.400000
7743 14449 9138 1 109.50000 418.400000
3130 14450 3349 1 109.50000 418.400000
3130 14450 9326 1 109.50000 418.400000
3130 14450 9327 1 109.50000 418.400000
3349 14450 9326 1 109.50000 418.400000
3349 14450 9327 1 109.50000 418.400000
9326 14450 9327 1 109.50000 418.400000
1532 14451 5265 1 109.50000 418.400000
1532 14451 7158 1 109.50000 418.400000
1532 14451 9328 1 109.50000 418.400000
5265 14451 7158 1 109.50000 418.400000
5265 14451 9328 1 109.50000 418.400000
7158 14451 9328 1 109.50000 418.400000
6034 14452 6464 1 109.50000 418.400000
6034 14452 8089 1 109.50000 418.400000
6034 14452 9330 1 109.50000 418.400000
6464 14452 8089 1 109.50000 418.400000
6464 14452 9330 1 109.50000 418.400000
8089 14452 9330 1 109.50000 418.400000
9244 14453 9331 1 109.50000 418.400000
9244 14453 9332 1 109.50000 418.400000
9244 14453 9333 1 109.50000 418.400000
9331 14453 9332 1 109.50000 418.400000
9331 14453 9333 1 109.50000 418.400000
9332 14453 9333 1 109.50000 418.400000
5594 14454 7703 1 109.50000 418.400000
5594 14454 9334 1 109.50000 418.400000
5594 14454 9335 1 109.50000 418.400000
7703 14454 9334 1 109.50000 418.400000
7703 14454 9335 1 109.50000 418.400000
9334 14454 9335 1 109.50000 418.400000
1900 14455 3915 1 109.50000 418.400000
1900 14455 8036 1 109.50000 418.400000
1900 14455 9336 1 109.50000 418.400000
3915 14455 8036 1 109.50000 418.400000
3915 14455 9336 1 109.50000 418.400000
8036 14455 9336 1 109.50000 418.400000
8452 14456 8989 1 109.50000 418.400000
8452 14456 9337 1 109.50000 418.400000
8452 14456 9338 1 109.50000 418.400000
8989 14456 9337 1 109.50000 418.400000
8989 14456 9338 1 109.50000 418.400000
9337 14456 9338 1 109.50000 418.400000
1114 14457 4138 1 109.50000 418.400000
1114 14457 8377 1 109.50000 418.400000
1114 14457 9339 1 109.50000 418.400000
4138 14457 8377 1 109.50000 418.400000
4138 14457 9339 1 109.50000 418.400000
8377 14457 9339 1 109.50000 418.400000
4962 14458 9340 1 109.50000 418.400000
4962 14458 9341 1 109.50000 418.400000
4962 14458 10737 1 109.50000 418.400000
9340 14458 9341 1 109.50000 418.400000
9340 14458 10737 1 109.50000 418.400000
9341 14458 10737 1 109.50000 418.400000
831 14459 1680 1 109.50000 418.400000
831 14459 9342 1 109.50000 418.400000
831 14459 9343 1 109.50000 418.400000
1680 14459 9342 1 109.50000 418.400000
1680 14459 9343 1 109.50000 418.400000
9342 14459 9343 1 109.50000 418.400000
2618 14460 2805 1 109.50000 418.400000
2618 14460 9344 1 109.50000 418.400000
2618 14460 9345 1 109.50000 418.400000
2805 14460 9344 1 109.50000 418.400000
2805 14460 9345 1 109.50000 418.400000
9344 14460 9345 1 109.50000 418.400000
3675 14461 4035 1 109.50000 418.400000
3675 14461 7034 1 109.50000 418.400000
3675 14461 9346 1 109.50000 418.400000
4035 14461 7034 1 109.50000 418.400000
4035 14461 9346 1 109.50000 418.400000
7034 14461 9346 1 109.50000 418.400000
3621 14462 6193 1 109.50000 418.400000
3621 14462 7327 1 109.50000 418.400000
3621 14462 9347 1 109.50000 418.400000
6193 14462 7327 1 109.50000 418.400000
6193 14462 9347 1 109.50000 418.400000
7327 14462 9347 1 109.50000 418.400000
886 14463 6635 1 109.50000 418.400000
886 14463 9151 1 109.50000 418.400000
886 14463 9349 1 109.50000 418.400000
6635 14463 9151 1 109.50000 418.400000
6635 14463 9349 1 109.50000 418.400000
9151 14463 9349 1 109.50000 418.400000
4173 14464 7977 1 109.50000 418.400000
4173 14464 8976 1 109.50000 418.400000
4173 14464 9350 1 109.50000 418.400000
7977 14464 8976 1 109.50000 418.400000
7977 14464 9350 1 109.50000 418.400000
8976 14464 9350 1 109.50000 418.400000
1607 14465 5689 1 109.50000 418.400000
1607 14465 9351 1 109.50000 418.400000
1607 14465 9352 1 109.50000 418.400000
5689 14465 9351 1 109.50000 418.400000
5689 14465 9352 1 109.50000 418.400000
9351 14465 9352 1 109.50000 418.400000
6335 14466 6384 1 109.50000 418.400000
6335 14466 9353 1 109.50000 418.400000
6335 14466 11254 1 109.50000 418.400000
6384 14466 9353 1 109.50000 418.400000
6384 14466 11254 1 109.50000 418.400000
9353 14466 11254 1 109.50000 418.400000
49 14467 766 1 109.50000 418.400000
49 14467 5432 1 109.50000 418.400000
49 14467 9354 1 109.50000 418.400000
766 14467 5432 1 109.50000 418.400000
766 14467 9354 1 109.50000 418.400000
5432 14467 9354 1 109.50000 418.400000
6212 14468 8623 1 109.50000 418.400000
6212 14468 9355 1 109.50000 418.400000
6212 14468 9356 1 109.50000 418.400000
8623 14468 9355 1 109.50000 418.400000
8623 14468 9356 1 109.50000 418.400000
9355 14468 9356 1 109.50000 418.400000
666 14469 1511 1 109.50000 418.400000
666 14469 3824 1 109.50000 418.400000
666 14469 9357 1 109.50000 418.400000
1511 14469 3824 1 109.50000 418.400000
1511 14469 9357 1 109.50000 418.400000
3824 14469 9357 1 109.50000 418.400000
6980 14470 7277 1 109.50000 418.400000
6980 14470 9358 1 109.50000 418.400000
6980 14470 9360 1 109.50000 418.400000
7277 14470 9358 1 109.50000 418.400000
7277 14470 9360 1 109.50000 418.400000
9358 14470 9360 1 109.50000 418.400000
2533 14471 4472 1 109.50000 418.400000
2533 14471 6972 1 109.50000 418.400000
2533 14471 9361 1 109.50000 418.400000
4472 14471 6972 1 109.50000 418.400000
4472 14471 9361 1 109.50000 418.400000
6972 14471 9361 1 109.50000 418.400000
6539 14472 6757 1 109.50000 418.400000
6539 14472 8948 1 109.50000 418.400000
6539 14472 9216 1 109.50000 418.400000
6757 14472 8948 1 109.50000 418.400000
6757 14472 9216 1 109.50000 418.400000
8948 14472 9216 1 109.50000 418.400000
2767 14473 7872 1 109.50000 418.400000
2767 14473 9363 1 109.50000 418.400000
2767 14473 9364 1 109.50000 418.400000
7872 14473 9363 1 109.50000 418.400000
7872 14473 9364 1 109.50000 418.400000
9363 14473 9364 1 109.50000 418.400000
6996 14474 9365 1 109.50000 418.400000
6996 14474 9366 1 109.50000 418.400000
6996 14474 9367 1 109.50000 418.400000
9365 14474 9366 1 109.50000 418.400000
9365 14474 9367 1 109.50000 418.400000
9366 14474 9367 1 109.50000 418.400000
6453 14475 6631 1 109.50000 418.400000
6453 14475 9368 1 109.50000 418.400000
6453 14475 9369 1 109.50000 418.400000
6631 14475 9368 1 109.50000 418.400000
6631 14475 9369 1 109.50000 418.400000
9368 14475 9369 1 109.50000 418.400000
7410 14476 7901 1 109.50000 418.400000
7410 14476 7919 1 109.50000 418.400000
7410 14476 9370 1 109.50000 418.400000
7901 14476 7919 1 109.50000 418.400000
7901 14476 9370 1 109.50000 418.400000
7919 14476 9370 1 109.50000 418.400000
236 14477 6964 1 109.50000 418.400000
236 14477 9371 1 109.50000 418.400000
236 14477 9372 1 109.50000 418.400000
6964 14477 9371 1 109.50000 418.400000
6964 14477 9372 1 109.50000 418.400000
9371 14477 9372 1 109.50000 418.400000
963 14478 2448 1 109.50000 418.400000
963 14478 6846 1 109.50000 418.400000
963 14478 9373 1 109.50000 418.400000
2448 14478 6846 1 109.50000 418.400000
2448 14478 9373 1 109.50000 418.400000
6846 14478 9373 1 109.50000 418.400000
3449 14479 5026 1 109.50000 418.400000
3449 14479 9374 1 109.50000 418.400000
3449 14479 10082 1 109.50000 418.400000
5026 14479 9374 1 109.50000 418.400000
5026 14479 10082 1 109.50000 418.400000
9374 14479 10082 1 109.50000 418.400000
2783 14480 8277 1 109.50000 418.400000
2783 14480 9376 1 109.50000 418.400000
2783 14480 9377 1 109.50000 418.400000
8277 14480 9376 1 109.50000 418.400000
8277 14480 9377 1 109.50000 418.400000
9376 14480 9377 1 109.50000 418.400000
42 14481 9378 1 109.50000 418.400000
42 14481 9379 1 109.50000 418.400000
42 14481 9777 1 109.50000 418.400000
9378 14481 9379 1 109.50000 418.400000
9378 14481 9777 1 109.50000 418.400000
9379 14481 9777 1 109.50000 418.400000
3812 14482 3815 1 109.50000 418.400000
3812 14482 9380 1 109.50000 418.400000
3812 14482 9381 1 109.50000 418.400000
3815 14482 9380 1 109.50000 418.400000
3815 14482 9381 1 109.50000 418.400000
9380 14482 9381 1 109.50000 418.400000
6779 14483 9382 1 109.50000 418.400000
6779 14483 9383 1 109.50000 418.400000
6779 14483 9485 1 109.50000 418.400000
9382 14483 9383 1 109.50000 418.400000
9382 14483 9485 1 109.50000 418.400000
9383 14483 9485 1 109.50000 418.400000
5715 14484 6813 1 109.50000 418.400000
5715 14484 7665 1 109.50000 418.400000
5715 14484 9384 1 109.50000 418.400000
6813 14484 7665 1 109.50000 418.400000
6813 14484 9384 1 109.50000 418.400000
7665 14484 9384 1 109.50000 418.400000
8203 14485 9385 1 109.50000 418.400000
8203 14485 9386 1 109.50000 418.400000
8203 14485 9387 1 109.50000 418.400000
9385 14485 9386 1 109.50000 418.400000
9385 14485 9387 1 109.50000 418.400000
9386 14485 9387 1 109.50000 418.400000
1789 14486 8357 1 109.50000 418.400000
1789 14486 9389 1 109.50000 418.400000
1789 14486 9390 1 109.50000 418.400000
8357 14486 9389 1 109.50000 418.400000
8357 14486 9390 1 109.50000 418.400000
9389 14486 9390 1 109.50000 418.400000
5241 14487 6703 1 109.50000 418.400000
5241 14487 6704 1 109.50000 418.400000
5241 14487 9391 1 109.50000 418.400000
6703 14487 6704 1 109.50000 418.400000
6703 14487 9391 1 109.50000 418.400000
6704 14487 9391 1 109.50000 418.400000
4935 14488 5939 1 109.50000 418.400000
4935 14488 8441 1 109.50000 418.400000
4935 14488 9392 1 109.50000 418.400000
5939 14488 8441 1 109.50000 418.400000
5939 14488 9392 1 109.50000 418.400000
8441 14488 9392 1 109.50000 418.400000
7067 14489 9393 1 109.50000 418.400000
7067 14489 9394 1 109.50000 418.400000
7067 14489 9395 1 109.50000 418.400000
9393 14489 9394 1 109.50000 418.400000
9393 14489 9395 1 109.50000 418.400000
9394 14489 9395 1 109.50000 418.400000
5470 14490 6472 1 109.50000 418.400000
5470 14490 8797 1 109.50000 418.400000
5470 14490 9396 1 109.50000 418.400000
6472 14490 8797 1 109.50000 418.400000
6472 14490 9396 1 109.50000 418.400000
8797 14490 9396 1 109.50000 418.400000
663 14491 2803 1 109.50000 418.400000
663 14491 5494 1 109.50000 418.400000
663 14491 7731 1 109.50000 418.400000
2803 14491 5494 1 109.50000 418.400000
2803 14491 7731 1 109.50000 418.400000
5494 14491 7731 1 109.50000 418.400000
2722 14492 9397 1 109.50000 418.400000
2722 14492 9398 1 109.50000 418.400000
2722 14492 9399 1 109.50000 418.400000
9397 14492 9398 1 109.50000 418.400000
9397 14492 9399 1 109.50000 418.400000
9398 14492 9399 1 109.50000 418.400000
2225 14493 4310 1 109.50000 418.400000
2225 14493 5569 1 109.50000 418.400000
2225 14493 9400 1 109.50000 418.400000
4310 14493 5569 1 109.50000 418.400000
4310 14493 9400 1 109.50000 418.400000
5569 14493 9400 1 109.50000 418.400000
4296 14494 6111 1 109.50000 418.400000
4296 14494 7651 1 109.50000 418.400000
4296 14494 9401 1 109.50000 418.400000
6111 14494 7651 1 109.50000 418.400000
6111 14494 9401 1 109.50000 418.400000
7651 14494 9401 1 109.50000 418.400000
7784 14495 7785 1 109.50000 418.400000
7784 14495 9402 1 109.50000 418.400000
7784 14495 9403 1 109.50000 418.400000
7785 14495 9402 1 109.50000 418.400000
7785 14495 9403 1 109.50000 418.400000
9402 14495 9403 1 109.50000 418.400000
3545 14496 7622 1 109.50000 418.400000
3545 14496 8481 1 109.50000 418.400000
3545 14496 9404 1 109.50000 418.400000
7622 14496 8481 1 109.50000 418.400000
7622 14496 9404 1 109.50000 418.400000
8481 14496 9404 1 109.50000 418.400000
2292 14497 4925 1 109.50000 418.400000
2292 14497 7393 1 109.50000 418.400000
2292 14497 8660 1 109.50000 418.400000
4925 14497 7393 1 109.50000 418.400000
4925 14497 8660 1 109.50000 418.400000
7393 14497 8660 1 109.50000 418.400000
1907 14498 4440 1 109.50000 418.400000
1907 14498 4843 1 109.50000 418.400000
1907 14498 8652 1 109.50000 418.400000
4440 14498 4843 1 109.50000 418.400000
4440 14498 8652 1 109.50000 418.400000
4843 14498 8652 1 109.50000 418.400000
1270 14499 1321 1 109.50000 418.400000
1270 14499 7295 1 109.50000 418.400000
1270 14499 9406 1 109.50000 418.400000
1321 14499 7295 1 109.50000 418.400000
1321 14499 9406 1 109.50000 418.400000
7295 14499 9406 1 109.50000 418.400000
7640 14500 8356 1 109.50000 418.400000
7640 14500 9407 1 109.50000 418.400000
7640 14500 9408 1 109.50000 418.400000
8356 14500 9407 1 109.50000 418.400000
8356 14500 9408 1 109.50000 418.400000
9407 14500 9408 1 109.50000 418.400000
195 14501 3958 1 109.50000 418.400000
195 14501 7728 1 109.50000 418.400000
195 14501 9409 1 109.50000 418.400000
3958 14501 7728 1 109.50000 418.400000
3958 14501 9409 1 109.50000 418.400000
7728 14501 9409 1 109.50000 418.400000
288 14502 4007 1 109.50000 418.400000
288 14502 9410 1 109.50000 418.400000
288 14502 9411 1 109.50000 418.400000
4007 14502 9410 1 109.50000 418.400000
4007 14502 9411 1 109.50000 418.400000
9410 14502 9411 1 109.50000 418.400000
3452 14503 5127 1 109.50000 418.400000
3452 14503 9412 1 109.50000 418.400000
3452 14503 9413 1 109.50000 418.400000
5127 14503 9412 1 109.50000 418.400000
5127 14503 9413 1 109.50000 418.400000
9412 14503 9413 1 109.50000 418.400000
3361 14504 4473 1 109.50000 418.400000
3361 14504 8001 1 109.50000 418.400000
3361 14504 9414 1 109.50000 418.400000
4473 14504 8001 1 109.50000 418.400000
4473 14504 9414 1 109.50000 418.400000
8001 14504 9414 1 109.50000 418.400000
9415 14505 9416 1 109.50000 418.400000
9415 14505 9417 1 109.50000 418.400000
9415 14505 9418 1 109.50000 418.400000
9416 14505 9417 1 109.50000 418.400000
9416 14505 9418 1 109.50000 418.400000
9417 14505 9418 1 109.50000 418.400000
2508 14506 2668 1 109.50000 418.400000
2508 14506 7837 1 109.50000 418.400000
2508 14506 9419 1 109.50000 418.400000
2668 14506 7837 1 109.50000 418.400000
2668 14506 9419 1 109.50000 418.400000
7837 14506 9419 1 109.50000 418.400000
5895 14507 9420 1 109.50000 418.400000
5895 14507 9421 1 109.50000 418.400000
5895 14507 9422 1 109.50000 418.400000
9420 14507 9421 1 109.50000 418.400000
9420 14507 9422 1 109.50000 418.400000
9421 14507 9422 1 109.50000 418.400000
2889 14508 9423 1 109.50000 418.400000
2889 14508 9424 1 109.50000 418.400000
2889 14508 9425 1 109.50000 418.400000
9423 14508 9424 1 109.50000 418.400000
9423 14508 9425 1 109.50000 418.400000
9424 14508 9425 1 109.50000 418.400000
3792 14509 5682 1 109.50000 418.400000
3792 14509 7683 1 109.50000 418.400000
3792 14509 9426 1 109.50000 418.400000
5682 14509 7683 1 109.50000 418.400000
5682 14509 9426 1 109.50000 418.400000
7683 14509 9426 1 109.50000 418.400000
1582 14510 4289 1 109.50000 418.400000
1582 14510 6292 1 109.50000 418.400000
1582 14510 9427 1 109.50000 418.400000
4289 14510 6292 1 109.50000 418.400000
4289 14510 9427 1 109.50000 418.400000
6292 14510 9427 1 109.50000 418.400000
881 14511 7866 1 109.50000 418.400000
881 14511 9428 1 109.50000 418.400000
881 14511 9429 1 109.50000 418.400000
7866 14511 9428 1 109.50000 418.400000
7866 14511 9429 1 109.50000 418.400000
9428 14511 9429 1 109.50000 418.400000
7507 14512 7508 1 109.50000 418.400000
7507 14512 8392 1 109.50000 418.400000
7507 14512 9431 1 109.50000 418.400000
7508 14512 8392 1 109.50000 418.400000
7508 14512 9431 1 109.50000 418.400000
8392 14512 9431 1 109.50000 418.400000
2434 14513 9432 1 109.50000 418.400000
2434 14513 9433 1 109.50000 418.400000
2434 14513 9567 1 109.50000 418.400000
9432 14513 9433 1 109.50000 418.400000
9432 14513 9567 1 109.50000 418.400000
9433 14513 9567 1 109.50000 418.400000
4233 14514 7371 1 109.50000 418.400000
4233 14514 7384 1 109.50000 418.400000
4233 14514 9434 1 109.50000 418.400000
7371 14514 7384 1 109.50000 418.400000
7371 14514 9434 1 109.50000 418.400000
7384 14514 9434 1 109.50000 418.400000
1191 14515 4169 1 109.50000 418.400000
1191 14515 9435 1 109.50000 418.400000
1191 14515 9436 1 109.50000 418.400000
4169 14515 9435 1 109.50000 418.400000
4169 14515 9436 1 109.50000 418.400000
9435 14515 9436 1 109.50000 418.400000
703 14516 1322 1 109.50000 418.400000
703 14516 1804 1 109.50000 418.400000
703 14516 9437 1 109.50000 418.400000
1322 14516 1804 1 109.50000 418.400000
1322 14516 9437 1 109.50000 418.400000
1804 14516 9437 1 109.50000 418.400000
713 14517 2250 1 109.50000 418.400000
713 14517 3931 1 109.50000 418.400000
713 14517 5756 1 109.50000 418.400000
2250 14517 3931 1 109.50000 418.400000
2250 14517 5756 1 109.50000 418.400000
3931 14517 5756 1 109.50000 418.400000
6984 14518 8131 1 109.50000 418.400000
6984 14518 9438 1 109.50000 418.400000
6984 14518 9439 1 109.50000 418.400000
8131 14518 9438 1 109.50000 418.400000
8131 14518 9439 1 109.50000 418.400000
9438 14518 9439 1 109.50000 418.400000
1778 14519 5868 1 109.50000 418.400000
1778 14519 7445 1 109.50000 418.400000
1778 14519 9440 1 109.50000 418.400000
5868 14519 7445 1 109.50000 418.400000
5868 14519 9440 1 109.50000 418.400000
7445 14519 9440 1 109.50000 418.400000
5235 14520 9094 1 109.50000 418.400000
5235 14520 9250 1 109.50000 418.400000
5235 14520 9441 1 109.50000 418.400000
9094 14520 9250 1 109.50000 418.400000
9094 14520 9441 1 109.50000 418.400000
9250 14520 9441 1 109.50000 418.400000
5122 14521 8886 1 109.50000 418.400000
5122 14521 9442 1 109.50000 418.400000
5122 14521 9443 1 109.50000 418.400000
8886 14521 9442 1 109.50000 418.400000
8886 14521 9443 1 109.50000 418.400000
9442 14521 9443 1 109.50000 418.400000
3042 14522 7664 1 109.50000 418.400000
3042 14522 7726 1 109.50000 418.400000
3042 14522 9444 1 109.50000 418.400000
7664 14522 7726 1 109.50000 418.400000
7664 14522 9444 1 109.50000 418.400000
7726 14522 9444 1 109.50000 418.400000
9227 14523 9445 1 109.50000 418.400000
9227 14523 9446 1 109.50000 418.400000
9227 14523 9447 1 109.50000 418.400000
9445 14523 9446 1 109.50000 418.400000
9445 14523 9447 1 109.50000 418.400000
9446 14523 9447 1 109.50000 418.400000
6726 14524 9448 1 109.50000 418.400000
6726 14524 9449 1 109.50000 418.400000
6726 14524 9450 1 109.50000 418.400000
9448 14524 9449 1 109.50000 418.400000
9448 14524 9450 1 109.50000 418.400000
9449 14524 9450 1 109.50000 418.400000
2968 14525 7698 1 109.50000 418.400000
2968 14525 8410 1 109.50000 418.400000
2968 14525 9451 1 109.50000 418.400000
7698 14525 8410 1 109.50000 418.400000
7698 14525 9451 1 109.50000 418.400000
8410 14525 9451 1 109.50000 418.400000
6608 14526 7332 1 109.50000 418.400000
6608 14526 9453 1 109.50000 418.400000
6608 14526 9454 1 109.50000 418.400000
7332 14526 9453 1 109.50000 418.400000
7332 14526 9454 1 109.50000 418.400000
9453 14526 9454 1 109.50000 418.400000
1429 14527 5558 1 109.50000 418.400000
1429 14527 7840 1 109.50000 418.400000
1429 14527 9455 1 109.50000 418.400000
5558 14527 7840 1 109.50000 418.400000
5558 14527 9455 1 109.50000 418.400000
7840 14527 9455 1 109.50000 418.400000
9102 14528 9282 1 109.50000 418.400000
9102 14528 9412 1 109.50000 418.400000
9102 14528 9457 1 109.50000 418.400000
9282 14528 9412 1 109.50000 418.400000
9282 14528 9457 1 109.50000 418.400000
9412 14528 9457 1 109.50000 418.400000
1240 14529 2991 1 109.50000 418.400000
1240 14529 9458 1 109.50000 418.400000
1240 14529 11214 1 109.50000 418.400000
2991 14529 9458 1 109.50000 418.400000
2991 14529 11214 1 109.50000 418.400000
9458 14529 11214 1 109.50000 418.400000
4008 14530 8340 1 109.50000 418.400000
4008 14530 9459 1 109.50000 418.400000
4008 14530 9460 1 109.50000 418.400000
8340 14530 9459 1 109.50000 418.400000
8340 14530 9460 1 109.50000 418.400000
9459 14530 9460 1 109.50000 418.400000
890 14531 9461 1 109.50000 418.400000
890 14531 9462 1 109.50000 418.400000
890 14531 9463 1 109.50000 418.400000
9461 14531 9462 1 109.50000 418.400000
9461 14531 9463 1 109.50000 418.400000
9462 14531 9463 1 109.50000 418.400000
1658 14532 5822 1 109.50000 418.400000
1658 14532 8428 1 109.50000 418.400000
1658 14532 9466 1 109.50000 418.400000
5822 14532 8428 1 109.50000 418.400000
5822 14532 9466 1 109.50000 418.400000
8428 14532 9466 1 109.50000 418.400000
3126 14533 7774 1 109.50000 418.400000
3126 14533 9467 1 109.50000 418.400000
3126 14533 9468 1 109.50000 418.400000
7774 14533 9467 1 109.50000 418.400000
7774 14533 9468 1 109.50000 418.400000
9467 14533 9468 1 109.50000 418.400000
4344 14534 9469 1 109.50000 418.400000
4344 14534 9470 1 109.50000 418.400000
4344 14534 9471 1 109.50000 418.400000
9469 14534 9470 1 109.50000 418.400000
9469 14534 9471 1 109.50000 418.400000
9470 14534 9471 1 109.50000 418.400000
5169 14535 7083 1 109.50000 418.400000
5169 14535 8810 1 109.50000 418.400000
5169 14535 9187 1 109.50000 418.400000
7083 14535 8810 1 109.50000 418.400000
7083 14535 9187 1 109.50000 418.400000
8810 14535 9187 1 109.50000 418.400000
343 14536 2170 1 109.50000 418.400000
343 14536 6713 1 109.50000 418.400000
343 14536 9472 1 109.50000 418.400000
2170 14536 6713 1 109.50000 418.400000
2170 14536 9472 1 109.50000 418.400000
6713 14536 9472 1 109.50000 418.400000
1453 14537 9364 1 109.50000 418.400000
1453 14537 9473 1 109.50000 418.400000
1453 14537 9474 1 109.50000 418.400000
9364 14537 9473 1 109.50000 418.400000
9364 14537 9474 1 109.50000 418.400000
9473 14537 9474 1 109.50000 418.400000
6320 14538 9475 1 109.50000 418.400000
6320 14538 9476 1 109.50000 418.400000
6320 14538 9477 1 109.50000 418.400000
9475 14538 9476 1 109.50000 418.400000
9475 14538 9477 1 109.50000 418.400000
9476 14538 9477 1 109.50000 418.400000
308 14539 4996 1 109.50000 418.400000
308 14539 7456 1 109.50000 418.400000
308 14539 9478 1 109.50000 418.400000
4996 14539 7456 1 109.50000 418.400000
4996 14539 9478 1 109.50000 418.400000
7456 14539 9478 1 109.50000 418.400000
621 14540 5628 1 109.50000 418.400000
621 14540 9479 1 109.50000 418.400000
621 14540 9480 1 109.50000 418.400000
5628 14540 9479 1 109.50000 418.400000
5628 14540 9480 1 109.50000 418.400000
9479 14540 9480 1 109.50000 418.400000
2570 14541 5079 1 109.50000 418.400000
2570 14541 6736 1 109.50000 418.400000
2570 14541 9481 1 109.50000 418.400000
5079 14541 6736 1 109.50000 418.400000
5079 14541 9481 1 109.50000 418.400000
6736 14541 9481 1 109.50000 418.400000
6413 14542 6665 1 109.50000 418.400000
6413 14542 7234 1 109.50000 418.400000
6413 14542 9482 1 109.50000 418.400000
6665 14542 7234 1 109.50000 418.400000
6665 14542 9482 1 109.50000 418.400000
7234 14542 9482 1 109.50000 418.400000
1540 14543 2111 1 109.50000 418.400000
1540 14543 7620 1 109.50000 418.400000
1540 14543 9483 1 109.50000 418.400000
2111 14543 7620 1 109.50000 418.400000
2111 14543 9483 1 109.50000 418.400000
7620 14543 9483 1 109.50000 418.400000
485 14544 8616 1 109.50000 418.400000
485 14544 9383 1 109.50000 418.400000
485 14544 9484 1 109.50000 418.400000
8616 14544 9383 1 109.50000 418.400000
8616 14544 9484 1 109.50000 418.400000
9383 14544 9484 1 109.50000 418.400000
3896 14545 3977 1 109.50000 418.400000
3896 14545 8002 1 109.50000 418.400000
3896 14545 9487 1 109.50000 418.400000
3977 14545 8002 1 109.50000 418.400000
3977 14545 9487 1 109.50000 418.400000
8002 14545 9487 1 109.50000 418.400000
1067 14546 8957 1 109.50000 418.400000
1067 14546 9488 1 109.50000 418.400000
1067 14546 9489 1 109.50000 418.400000
8957 14546 9488 1 109.50000 418.400000
8957 14546 9489 1 109.50000 418.400000
9488 14546 9489 1 109.50000 418.400000
152 14547 8297 1 109.50000 418.400000
152 14547 9490 1 109.50000 418.400000
152 14547 9491 1 109.50000 418.400000
8297 14547 9490 1 109.50000 418.400000
8297 14547 9491 1 109.50000 418.400000
9490 14547 9491 1 109.50000 418.400000
1318 14548 8774 1 109.50000 418.400000
1318 14548 8842 1 109.50000 418.400000
1318 14548 9493 1 109.50000 418.400000
8774 14548 8842 1 109.50000 418.400000
8774 14548 9493 1 109.50000 418.400000
8842 14548 9493 1 109.50000 418.400000
5009 14549 9057 1 109.50000 418.400000
5009 14549 9452 1 109.50000 418.400000
5009 14549 9494 1 109.50000 418.400000
9057 14549 9452 1 109.50000 418.400000
9057 14549 9494 1 109.50000 418.400000
9452 14549 9494 1 109.50000 418.400000
2425 14550 3218 1 109.50000 418.400000
2425 14550 7468 1 109.50000 418.400000
2425 14550 9495 1 109.50000 418.400000
3218 14550 7468 1 109.50000 418.400000
3218 14550 9495 1 109.50000 418.400000
7468 14550 9495 1 109.50000 418.400000
1899 14551 7273 1 109.50000 418.400000
1899 14551 7591 1 109.50000 418.400000
1899 14551 9496 1 109.50000 418.400000
7273 14551 7591 1 109.50000 418.400000
7273 14551 9496 1 109.50000 418.400000
7591 14551 9496 1 109.50000 418.400000
7444 14552 8632 1 109.50000 418.400000
7444 14552 9497 1 109.50000 418.400000
7444 14552 9498 1 109.50000 418.400000
8632 14552 9497 1 109.50000 418.400000
8632 14552 9498 1 109.50000 418.400000
9497 14552 9498 1 109.50000 418.400000
3376 14553 6836 1 109.50000 418.400000
3376 14553 6837 1 109.50000 418.400000
3376 14553 9499 1 109.50000 418.400000
6836 14553 6837 1 109.50000 418.400000
6836 14553 9499 1 109.50000 418.400000
6837 14553 9499 1 109.50000 418.400000
7567 14554 7568 1 109.50000 418.400000
7567 14554 9230 1 109.50000 418.400000
7567 14554 11161 1 109.50000 418.400000
7568 14554 9230 1 109.50000 418.400000
7568 14554 11161 1 109.50000 418.400000
9230 14554 11161 1 109.50000 418.400000
5488 14555 9256 1 109.50000 418.400000
5488 14555 9501 1 109.50000 418.400000
5488 14555 9502 1 109.50000 418.400000
9256 14555 9501 1 109.50000 418.400000
9256 14555 9502 1 109.50000 418.400000
9501 14555 9502 1 109.50000 418.400000
2330 14556 2332 1 109.50000 418.400000
2330 14556 6201 1 109.50000 418.400000
2330 14556 11193 1 109.50000 418.400000
2332 14556 6201 1 109.50000 418.400000
2332 14556 11193 1 109.50000 418.400000
6201 14556 11193 1 109.50000 418.400000
2258 14557 6372 1 109.50000 418.400000
2258 14557 7595 1 109.50000 418.400000
2258 14557 9503 1 109.50000 418.400000
6372 14557 7595 1 109.50000 418.400000
6372 14557 9503 1 109.50000 418.400000
7595 14557 9503 1 109.50000 418.400000
2342 14558 2343 1 109.50000 418.400000
2342 14558 4493 1 109.50000 418.400000
2342 14558 9504 1 109.50000 418.400000
2343 14558 4493 1 109.50000 418.400000
2343 14558 9504 1 109.50000 418.400000
4493 14558 9504 1 109.50000 418.400000
1557 14559 4114 1 109.50000 418.400000
1557 14559 9507 1 109.50000 418.400000
1557 14559 9508 1 109.50000 418.400000
4114 14559 9507 1 109.50000 418.400000
4114 14559 9508 1 109.50000 418.400000
9507 14559 9508 1 109.50000 418.400000
4000 14560 5398 1 109.50000 418.400000
4000 14560 7573 1 109.50000 418.400000
4000 14560 9509 1 109.50000 418.400000
5398 14560 7573 1 109.50000 418.400000
5398 14560 9509 1 109.50000 418.400000
7573 14560 9509 1 109.50000 418.400000
4495 14561 4496 1 109.50000 418.400000
4495 14561 9511 1 109.50000 418.400000
4495 14561 9512 1 109.50000 418.400000
4496 14561 9511 1 109.50000 418.400000
4496 14561 9512 1 109.50000 418.400000
9511 14561 9512 1 109.50000 418.400000
3354 14562 3897 1 109.50000 418.400000
3354 14562 8324 1 109.50000 418.400000
3354 14562 8726 1 109.50000 418.400000
3897 14562 8324 1 109.50000 418.400000
3897 14562 8726 1 109.50000 418.400000
8324 14562 8726 1 109.50000 418.400000
9513 14563 9514 1 109.50000 418.400000
9513 14563 9515 1 109.50000 418.400000
9513 14563 9516 1 109.50000 418.400000
9514 14563 9515 1 109.50000 418.400000
9514 14563 9516 1 109.50000 418.400000
9515 14563 9516 1 109.50000 418.400000
2894 14564 2895 1 109.50000 418.400000
2894 14564 5331 1 109.50000 418.400000
2894 14564 6124 1 109.50000 418.400000
2895 14564 5331 1 109.50000 418.400000
2895 14564 6124 1 109.50000 418.400000
5331 14564 6124 1 109.50000 418.400000
3992 14565 6412 1 109.50000 418.400000
3992 14565 7243 1 109.50000 418.400000
3992 14565 9518 1 109.50000 418.400000
6412 14565 7243 1 109.50000 418.400000
6412 14565 9518 1 109.50000 418.400000
7243 14565 9518 1 109.50000 418.400000
578 14566 4001 1 109.50000 418.400000
578 14566 6675 1 109.50000 418.400000
578 14566 9519 1 109.50000 418.400000
4001 14566 6675 1 109.50000 418.400000
4001 14566 9519 1 109.50000 418.400000
6675 14566 9519 1 109.50000 418.400000
2762 14567 4633 1 109.50000 418.400000
2762 14567 7747 1 109.50000 418.400000
2762 14567 9521 1 109.50000 418.400000
4633 14567 7747 1 109.50000 418.400000
4633 14567 9521 1 109.50000 418.400000
7747 14567 9521 1 109.50000 418.400000
3933 14568 4850 1 109.50000 418.400000
3933 14568 5749 1 109.50000 418.400000
3933 14568 9522 1 109.50000 418.400000
4850 14568 5749 1 109.50000 418.400000
4850 14568 9522 1 109.50000 418.400000
5749 14568 9522 1 109.50000 418.400000
294 14569 6669 1 109.50000 418.400000
294 14569 9523 1 109.50000 418.400000
294 14569 9524 1 109.50000 418.400000
6669 14569 9523 1 109.50000 418.400000
6669 14569 9524 1 109.50000 418.400000
9523 14569 9524 1 109.50000 418.400000
4540 14570 8161 1 109.50000 418.400000
4540 14570 8300 1 109.50000 418.400000
4540 14570 9525 1 109.50000 418.400000
8161 14570 8300 1 109.50000 418.400000
8161 14570 9525 1 109.50000 418.400000
8300 14570 9525 1 109.50000 418.400000
3874 14571 9390 1 109.50000 418.400000
3874 14571 9400 1 109.50000 418.400000
3874 14571 9501 1 109.50000 418.400000
9390 14571 9400 1 109.50000 418.400000
9390 14571 9501 1 109.50000 418.400000
9400 14571 9501 1 109.50000 418.400000
1068 14572 1527 1 109.50000 418.400000
1068 14572 9527 1 109.50000 418.400000
1068 14572 9528 1 109.50000 418.400000
1527 14572 9527 1 109.50000 418.400000
1527 14572 9528 1 109.50000 418.400000
9527 14572 9528 1 109.50000 418.400000
8766 14573 9529 1 109.50000 418.400000
8766 14573 9530 1 109.50000 418.400000
8766 14573 9531 1 109.50000 418.400000
9529 14573 9530 1 109.50000 418.400000
9529 14573 9531 1 109.50000 418.400000
9530 14573 9531 1 109.50000 418.400000
1523 14574 7087 1 109.50000 418.400000
1523 14574 9533 1 109.50000 418.400000
1523 14574 9534 1 109.50000 418.400000
7087 14574 9533 1 109.50000 418.400000
7087 14574 9534 1 109.50000 418.400000
9533 14574 9534 1 109.50000 418.400000
589 14575 8784 1 109.50000 418.400000
589 14575 9426 1 109.50000 418.400000
589 14575 9535 1 109.50000 418.400000
8784 14575 9426 1 109.50000 418.400000
8784 14575 9535 1 109.50000 418.400000
9426 14575 9535 1 109.50000 418.400000
648 14576 3438 1 109.50000 418.400000
648 14576 9536 1 109.50000 418.400000
648 14576 9537 1 109.50000 418.400000
3438 14576 9536 1 109.50000 418.400000
3438 14576 9537 1 109.50000 418.400000
9536 14576 9537 1 109.50000 418.400000
3571 14577 7100 1 109.50000 418.400000
3571 14577 9538 1 109.50000 418.400000
3571 14577 9539 1 109.50000 418.400000
7100 14577 9538 1 109.50000 418.400000
7100 14577 9539 1 109.50000 418.400000
9538 14577 9539 1 109.50000 418.400000
6598 14578 7080 1 109.50000 418.400000
6598 14578 7082 1 109.50000 418.400000
6598 14578 9540 1 109.50000 418.400000
7080 14578 7082 1 109.50000 418.400000
7080 14578 9540 1 109.50000 418.400000
7082 14578 9540 1 109.50000 418.400000
9541 14579 9542 1 109.50000 418.400000
9541 14579 9543 1 109.50000 418.400000
9541 14579 9544 1 109.50000 418.400000
9542 14579 9543 1 109.50000 418.400000
9542 14579 9544 1 109.50000 418.400000
9543 14579 9544 1 109.50000 418.400000
3420 14580 3820 1 109.50000 418.400000
3420 14580 7973 1 109.50000 418.400000
3420 14580 9545 1 109.50000 418.400000
3820 14580 7973 1 109.50000 418.400000
3820 14580 9545 1 109.50000 418.400000
7973 14580 9545 1 109.50000 418.400000
962 14581 1012 1 109.50000 418.400000
962 14581 8744 1 109.50000 418.400000
962 14581 9546 1 109.50000 418.400000
1012 14581 8744 1 109.50000 418.400000
1012 14581 9546 1 109.50000 418.400000
8744 14581 9546 1 109.50000 418.400000
6658 14582 6825 1 109.50000 418.400000
6658 14582 7098 1 109.50000 418.400000
6658 14582 8665 1 109.50000 418.400000
6825 14582 7098 1 109.50000 418.400000
6825 14582 8665 1 109.50000 418.400000
7098 14582 8665 1 109.50000 418.400000
2485 14583 4711 1 109.50000 418.400000
2485 14583 9550 1 109.50000 418.400000
2485 14583 9551 1 109.50000 418.400000
4711 14583 9550 1 109.50000 418.400000
4711 14583 9551 1 109.50000 418.400000
9550 14583 9551 1 109.50000 418.400000
8009 14584 9552 1 109.50000 418.400000
8009 14584 9553 1 109.50000 418.400000
8009 14584 9554 1 109.50000 418.400000
9552 14584 9553 1 109.50000 418.400000
9552 14584 9554 1 109.50000 418.400000
9553 14584 9554 1 109.50000 418.400000
5295 14585 9015 1 109.50000 418.400000
5295 14585 9016 1 109.50000 418.400000
5295 14585 9555 1 109.50000 418.400000
9015 14585 9016 1 109.50000 418.400000
9015 14585 9555 1 109.50000 418.400000
9016 14585 9555 1 109.50000 418.400000
944 14586 4758 1 109.50000 418.400000
944 14586 9556 1 109.50000 418.400000
944 14586 9557 1 109.50000 418.400000
4758 14586 9556 1 109.50000 418.400000
4758 14586 9557 1 109.50000 418.400000
9556 14586 9557 1 109.50000 418.400000
6862 14587 7196 1 109.50000 418.400000
6862 14587 9559 1 109.50000 418.400000
6862 14587 9560 1 109.50000 418.400000
7196 14587 9559 1 109.50000 418.400000
7196 14587 9560 1 109.50000 418.400000
9559 14587 9560 1 109.50000 418.400000
2754 14588 2756 1 109.50000 418.400000
2754 14588 9561 1 109.50000 418.400000
2754 14588 9562 1 109.50000 418.400000
2756 14588 9561 1 109.50000 418.400000
2756 14588 9562 1 109.50000 418.400000
9561 14588 9562 1 109.50000 418.400000
3793 14589 6976 1 109.50000 418.400000
3793 14589 8823 1 109.50000 418.400000
3793 14589 9564 1 109.50000 418.400000
6976 14589 8823 1 109.50000 418.400000
6976 14589 9564 1 109.50000 418.400000
8823 14589 9564 1 109.50000 418.400000
7168 14590 9144 1 109.50000 418.400000
7168 14590 9565 1 109.50000 418.400000
7168 14590 9566 1 109.50000 418.400000
9144 14590 9565 1 109.50000 418.400000
9144 14590 9566 1 109.50000 418.400000
9565 14590 9566 1 109.50000 418.400000
594 14591 2960 1 109.50000 418.400000
594 14591 6107 1 109.50000 418.400000
594 14591 9432 1 109.50000 418.400000
2960 14591 6107 1 109.50000 418.400000
2960 14591 9432 1 109.50000 418.400000
6107 14591 9432 1 109.50000 418.400000
8899 14592 9184 1 109.50000 418.400000
8899 14592 9569 1 109.50000 418.400000
8899 14592 9570 1 109.50000 418.400000
9184 14592 9569 1 109.50000 418.400000
9184 14592 9570 1 109.50000 418.400000
9569 14592 9570 1 109.50000 418.400000
2265 14593 5723 1 109.50000 418.400000
2265 14593 8306 1 109.50000 418.400000
2265 14593 9571 1 109.50000 418.400000
5723 14593 8306 1 109.50000 418.400000
5723 14593 9571 1 109.50000 418.400000
8306 14593 9571 1 109.50000 418.400000
2835 14594 6895 1 109.50000 418.400000
2835 14594 8323 1 109.50000 418.400000
2835 14594 9487 1 109.50000 418.400000
6895 14594 8323 1 109.50000 418.400000
6895 14594 9487 1 109.50000 418.400000
8323 14594 9487 1 109.50000 418.400000
1887 14595 8132 1 109.50000 418.400000
1887 14595 9513 1 109.50000 418.400000
1887 14595 9572 1 109.50000 418.400000
8132 14595 9513 1 109.50000 418.400000
8132 14595 9572 1 109.50000 418.400000
9513 14595 9572 1 109.50000 418.400000
1380 14596 6145 1 109.50000 418.400000
1380 14596 8878 1 109.50000 418.400000
1380 14596 9573 1 109.50000 418.400000
6145 14596 8878 1 109.50000 418.400000
6145 14596 9573 1 109.50000 418.400000
8878 14596 9573 1 109.50000 418.400000
6649 14597 8232 1 109.50000 418.400000
6649 14597 9574 1 109.50000 418.400000
6649 14597 9575 1 109.50000 418.400000
8232 14597 9574 1 109.50000 418.400000
8232 14597 9575 1 109.50000 418.400000
9574 14597 9575 1 109.50000 418.400000
3928 14598 4865 1 109.50000 418.400000
3928 14598 9576 1 109.50000 418.400000
3928 14598 9577 1 109.50000 418.400000
4865 14598 9576 1 109.50000 418.400000
4865 14598 9577 1 109.50000 418.400000
9576 14598 9577 1 109.50000 418.400000
1542 14599 1707 1 109.50000 418.400000
1542 14599 6917 1 109.50000 418.400000
1542 14599 9578 1 109.50000 418.400000
1707 14599 6917 1 109.50000 418.400000
1707 14599 9578 1 109.50000 418.400000
6917 14599 9578 1 109.50000 418.400000
1051 14600 3068 1 109.50000 418.400000
1051 14600 3356 1 109.50000 418.400000
1051 14600 9579 1 109.50000 418.400000
3068 14600 3356 1 109.50000 418.400000
3068 14600 9579 1 109.50000 418.400000
3356 14600 9579 1 109.50000 418.400000
3981 14601 6331 1 109.50000 418.400000
3981 14601 7906 1 109.50000 418.400000
3981 14601 9580 1 109.50000 418.400000
6331 14601 7906 1 109.50000 418.400000
6331 14601 9580 1 109.50000 418.400000
7906 14601 9580 1 109.50000 418.400000
3602 14602 9581 1 109.50000 418.400000
3602 14602 9582 1 109.50000 418.400000
3602 14602 9583 1 109.50000 418.400000
9581 14602 9582 1 109.50000 418.400000
9581 14602 9583 1 109.50000 418.400000
9582 14602 9583 1 109.50000 418.400000
2734 14603 3669 1 109.50000 418.400000
2734 14603 7848 1 109.50000 418.400000
2734 14603 8593 1 109.50000 418.400000
3669 14603 7848 1 109.50000 418.400000
3669 14603 8593 1 109.50000 418.400000
7848 14603 8593 1 109.50000 418.400000
2293 14604 6511 1 109.50000 418.400000
2293 14604 8684 1 109.50000 418.400000
2293 14604 9318 1 109.50000 418.400000
6511 14604 8684 1 109.50000 418.400000
6511 14604 9318 1 109.50000 418.400000
8684 14604 9318 1 109.50000 418.400000
917 14605 8568 1 109.50000 418.400000
917 14605 9584 1 109.50000 418.400000
917 14605 9585 1 109.50000 418.400000
8568 14605 9584 1 109.50000 418.400000
8568 14605 9585 1 109.50000 418.400000
9584 14605 9585 1 109.50000 418.400000
2008 14606 2185 1 109.50000 418.400000
2008 14606 2846 1 109.50000 418.400000
2008 14606 9586 1 109.50000 418.400000
2185 14606 2846 1 109.50000 418.400000
2185 14606 9586 1 109.50000 418.400000
2846 14606 9586 1 109.50000 418.400000
166 14607 5065 1 109.50000 418.400000
166 14607 5645 1 109.50000 418.400000
166 14607 9587 1 109.50000 418.400000
5065 14607 5645 1 109.50000 418.400000
5065 14607 9587 1 109.50000 418.400000
5645 14607 9587 1 109.50000 418.400000
9000 14608 9588 1 109.50000 418.400000
9000 14608 9589 1 109.50000 418.400000
9000 14608 9590 1 109.50000 418.400000
9588 14608 9589 1 109.50000 418.400000
9588 14608 9590 1 109.50000 418.400000
9589 14608 9590 1 109.50000 418.400000
968 14609 3429 1 109.50000 418.400000
968 14609 6790 1 109.50000 418.400000
968 14609 9006 1 109.50000 418.400000
3429 14609 6790 1 109.50000 418.400000
3429 14609 9006 1 109.50000 418.400000
6790 14609 9006 1 109.50000 418.400000
1806 14610 5280 1 109.50000 418.400000
1806 14610 9591 1 109.50000 418.400000
1806 14610 9592 1 109.50000 418.400000
5280 14610 9591 1 109.50000 418.400000
5280 14610 9592 1 109.50000 418.400000
9591 14610 9592 1 109.50000 418.400000
7717 14611 8973 1 109.50000 418.400000
7717 14611 9593 1 109.50000 418.400000
7717 14611 9594 1 109.50000 418.400000
8973 14611 9593 1 109.50000 418.400000
8973 14611 9594 1 109.50000 418.400000
9593 14611 9594 1 109.50000 418.400000
3382 14612 8422 1 109.50000 418.400000
3382 14612 9595 1 109.50000 418.400000
3382 14612 9596 1 109.50000 418.400000
8422 14612 9595 1 109.50000 418.400000
8422 14612 9596 1 109.50000 418.400000
9595 14612 9596 1 109.50000 418.400000
1413 14613 8061 1 109.50000 418.400000
1413 14613 9598 1 109.50000 418.400000
1413 14613 9599 1 109.50000 418.400000
8061 14613 9598 1 109.50000 418.400000
8061 14613 9599 1 109.50000 418.400000
9598 14613 9599 1 109.50000 418.400000
109 14614 4885 1 109.50000 418.400000
109 14614 8862 1 109.50000 418.400000
109 14614 9600 1 109.50000 418.400000
4885 14614 8862 1 109.50000 418.400000
4885 14614 9600 1 109.50000 418.400000
8862 14614 9600 1 109.50000 418.400000
3417 14615 7460 1 109.50000 418.400000
3417 14615 9034 1 109.50000 418.400000
3417 14615 9603 1 109.50000 418.400000
7460 14615 9034 1 109.50000 418.400000
7460 14615 9603 1 109.50000 418.400000
9034 14615 9603 1 109.50000 418.400000
1464 14616 7570 1 109.50000 418.400000
1464 14616 9604 1 109.50000 418.400000
1464 14616 9605 1 109.50000 418.400000
7570 14616 9604 1 109.50000 418.400000
7570 14616 9605 1 109.50000 418.400000
9604 14616 9605 1 109.50000 418.400000
4408 14617 7875 1 109.50000 418.400000
4408 14617 9607 1 109.50000 418.400000
4408 14617 9608 1 109.50000 418.400000
7875 14617 9607 1 109.50000 418.400000
7875 14617 9608 1 109.50000 418.400000
9607 14617 9608 1 109.50000 418.400000
9609 14618 9969 1 109.50000 418.400000
9609 14618 11054 1 109.50000 418.400000
9609 14618 11055 1 109.50000 418.400000
9969 14618 11054 1 109.50000 418.400000
9969 14618 11055 1 109.50000 418.400000
11054 14618 11055 1 109.50000 418.400000
3454 14619 8792 1 109.50000 418.400000
3454 14619 9612 1 109.50000 418.400000
3454 14619 9613 1 109.50000 418.400000
8792 14619 9612 1 109.50000 418.400000
8792 14619 9613 1 109.50000 418.400000
9612 14619 9613 1 109.50000 418.400000
1646 14620 4088 1 109.50000 418.400000
1646 14620 9614 1 109.50000 418.400000
1646 14620 9615 1 109.50000 418.400000
4088 14620 9614 1 109.50000 418.400000
4088 14620 9615 1 109.50000 418.400000
9614 14620 9615 1 109.50000 418.400000
5764 14621 6274 1 109.50000 418.400000
5764 14621 6275 1 109.50000 418.400000
5764 14621 9511 1 109.50000 418.400000
6274 14621 6275 1 109.50000 418.400000
6274 14621 9511 1 109.50000 418.400000
6275 14621 9511 1 109.50000 418.400000
4581 14622 8521 1 109.50000 418.400000
4581 14622 9616 1 109.50000 418.400000
4581 14622 9617 1 109.50000 418.400000
8521 14622 9616 1 109.50000 418.400000
8521 14622 9617 1 109.50000 418.400000
9616 14622 9617 1 109.50000 418.400000
714 14623 715 1 109.50000 418.400000
714 14623 8692 1 109.50000 418.400000
714 14623 9618 1 109.50000 418.400000
715 14623 8692 1 109.50000 418.400000
715 14623 9618 1 109.50000 418.400000
8692 14623 9618 1 109.50000 418.400000
506 14624 2172 1 109.50000 418.400000
506 14624 2718 1 109.50000 418.400000
506 14624 9619 1 109.50000 418.400000
2172 14624 2718 1 109.50000 418.400000
2172 14624 9619 1 109.50000 418.400000
2718 14624 9619 1 109.50000 418.400000
81 14625 1307 1 109.50000 418.400000
81 14625 8914 1 109.50000 418.400000
81 14625 9620 1 109.50000 418.400000
1307 14625 8914 1 109.50000 418.400000
1307 14625 9620 1 109.50000 418.400000
8914 14625 9620 1 109.50000 418.400000
2922 14626 7019 1 109.50000 418.400000
2922 14626 7204 1 109.50000 418.400000
2922 14626 7534 1 109.50000 418.400000
7019 14626 7204 1 109.50000 418.400000
7019 14626 7534 1 109.50000 418.400000
7204 14626 7534 1 109.50000 418.400000
583 14627 3089 1 109.50000 418.400000
583 14627 3188 1 109.50000 418.400000
583 14627 5135 1 109.50000 418.400000
3089 14627 3188 1 109.50000 418.400000
3089 14627 5135 1 109.50000 418.400000
3188 14627 5135 1 109.50000 418.400000
4068 14628 7124 1 109.50000 418.400000
4068 14628 7126 1 109.50000 418.400000
4068 14628 7374 1 109.50000 418.400000
7124 14628 7126 1 109.50000 418.400000
7124 14628 7374 1 109.50000 418.400000
7126 14628 7374 1 109.50000 418.400000
1032 14629 9623 1 109.50000 418.400000
1032 14629 9624 1 109.50000 418.400000
1032 14629 9625 1 109.50000 418.400000
9623 14629 9624 1 109.50000 418.400000
9623 14629 9625 1 109.50000 418.400000
9624 14629 9625 1 109.50000 418.400000
8215 14630 8856 1 109.50000 418.400000
8215 14630 8910 1 109.50000 418.400000
8215 14630 9137 1 109.50000 418.400000
8856 14630 8910 1 109.50000 418.400000
8856 14630 9137 1 109.50000 418.400000
8910 14630 9137 1 109.50000 418.400000
9626 14631 9627 1 109.50000 418.400000
9626 14631 9628 1 109.50000 418.400000
9626 14631 9629 1 109.50000 418.400000
9627 14631 9628 1 109.50000 418.400000
9627 14631 9629 1 109.50000 418.400000
9628 14631 9629 1 109.50000 418.400000
1714 14632 6756 1 109.50000 418.400000
1714 14632 9630 1 109.50000 418.400000
1714 14632 9631 1 109.50000 418.400000
6756 14632 9630 1 109.50000 418.400000
6756 14632 9631 1 109.50000 418.400000
9630 14632 9631 1 109.50000 418.400000
2755 14633 9632 1 109.50000 418.400000
2755 14633 9634 1 109.50000 418.400000
2755 14633 10819 1 109.50000 418.400000
9632 14633 9634 1 109.50000 418.400000
9632 14633 10819 1 109.50000 418.400000
9634 14633 10819 1 109.50000 418.400000
977 14634 2450 1 109.50000 418.400000
977 14634 9635 1 109.50000 418.400000
977 14634 9636 1 109.50000 418.400000
2450 14634 9635 1 109.50000 418.400000
2450 14634 9636 1 109.50000 418.400000
9635 14634 9636 1 109.50000 418.400000
8181 14635 8463 1 109.50000 418.400000
8181 14635 9454 1 109.50000 418.400000
8181 14635 9637 1 109.50000 418.400000
8463 14635 9454 1 109.50000 418.400000
8463 14635 9637 1 109.50000 418.400000
9454 14635 9637 1 109.50000 418.400000
8997 14636 9235 1 109.50000 418.400000
8997 14636 9638 1 109.50000 418.400000
8997 14636 9639 1 109.50000 418.400000
9235 14636 9638 1 109.50000 418.400000
9235 14636 9639 1 109.50000 418.400000
9638 14636 9639 1 109.50000 418.400000
772 14637 7260 1 109.50000 418.400000
772 14637 7850 1 109.50000 418.400000
772 14637 9640 1 109.50000 418.400000
7260 14637 7850 1 109.50000 418.400000
7260 14637 9640 1 109.50000 418.400000
7850 14637 9640 1 109.50000 418.400000
3435 14638 5990 1 109.50000 418.400000
3435 14638 8703 1 109.50000 418.400000
3435 14638 9641 1 109.50000 418.400000
5990 14638 8703 1 109.50000 418.400000
5990 14638 9641 1 109.50000 418.400000
8703 14638 9641 1 109.50000 418.400000
9140 14639 9288 1 109.50000 418.400000
9140 14639 9642 1 109.50000 418.400000
9140 14639 9643 1 109.50000 418.400000
9288 14639 9642 1 109.50000 418.400000
9288 14639 9643 1 109.50000 418.400000
9642 14639 9643 1 109.50000 418.400000
3913 14640 7102 1 109.50000 418.400000
3913 14640 9646 1 109.50000 418.400000
3913 14640 9647 1 109.50000 418.400000
7102 14640 9646 1 109.50000 418.400000
7102 14640 9647 1 109.50000 418.400000
9646 14640 9647 1 109.50000 418.400000
3458 14641 4019 1 109.50000 418.400000
3458 14641 4390 1 109.50000 418.400000
3458 14641 5372 1 109.50000 418.400000
4019 14641 4390 1 109.50000 418.400000
4019 14641 5372 1 109.50000 418.400000
4390 14641 5372 1 109.50000 418.400000
6017 14642 9649 1 109.50000 418.400000
6017 14642 9650 1 109.50000 418.400000
6017 14642 9651 1 109.50000 418.400000
9649 14642 9650 1 109.50000 418.400000
9649 14642 9651 1 109.50000 418.400000
9650 14642 9651 1 109.50000 418.400000
84 14643 1388 1 109.50000 418.400000
84 14643 4400 1 109.50000 418.400000
84 14643 9652 1 109.50000 418.400000
1388 14643 4400 1 109.50000 418.400000
1388 14643 9652 1 109.50000 418.400000
4400 14643 9652 1 109.50000 418.400000
974 14644 4593 1 109.50000 418.400000
974 14644 6671 1 109.50000 418.400000
974 14644 9529 1 109.50000 418.400000
4593 14644 6671 1 109.50000 418.400000
4593 14644 9529 1 109.50000 418.400000
6671 14644 9529 1 109.50000 418.400000
905 14645 1534 1 109.50000 418.400000
905 14645 1719 1 109.50000 418.400000
905 14645 8768 1 109.50000 418.400000
1534 14645 1719 1 109.50000 418.400000
1534 14645 8768 1 109.50000 418.400000
1719 14645 8768 1 109.50000 418.400000
710 14646 3550 1 109.50000 418.400000
710 14646 8404 1 109.50000 418.400000
710 14646 9656 1 109.50000 418.400000
3550 14646 8404 1 109.50000 418.400000
3550 14646 9656 1 109.50000 418.400000
8404 14646 9656 1 109.50000 418.400000
605 14647 2683 1 109.50000 418.400000
605 14647 9657 1 109.50000 418.400000
605 14647 10521 1 109.50000 418.400000
2683 14647 9657 1 109.50000 418.400000
2683 14647 10521 1 109.50000 418.400000
9657 14647 10521 1 109.50000 418.400000
9521 14648 9658 1 109.50000 418.400000
9521 14648 9659 1 109.50000 418.400000
9521 14648 9660 1 109.50000 418.400000
9658 14648 9659 1 109.50000 418.400000
9658 14648 9660 1 109.50000 418.400000
9659 14648 9660 1 109.50000 418.400000
3769 14649 9661 1 109.50000 418.400000
3769 14649 9662 1 109.50000 418.400000
3769 14649 9663 1 109.50000 418.400000
9661 14649 9662 1 109.50000 418.400000
9661 14649 9663 1 109.50000 418.400000
9662 14649 9663 1 109.50000 418.400000
1629 14650 5897 1 109.50000 418.400000
1629 14650 9473 1 109.50000 418.400000
1629 14650 9664 1 109.50000 418.400000
5897 14650 9473 1 109.50000 418.400000
5897 14650 9664 1 109.50000 418.400000
9473 14650 9664 1 109.50000 418.400000
4808 14651 7485 1 109.50000 418.400000
4808 14651 9665 1 109.50000 418.400000
4808 14651 9666 1 109.50000 418.400000
7485 14651 9665 1 109.50000 418.400000
7485 14651 9666 1 109.50000 418.400000
9665 14651 9666 1 109.50000 418.400000
9667 14652 9668 1 109.50000 418.400000
9667 14652 9669 1 109.50000 418.400000
9667 14652 9670 1 109.50000 418.400000
9668 14652 9669 1 109.50000 418.400000
9668 14652 9670 1 109.50000 418.400000
9669 14652 9670 1 109.50000 418.400000
1745 14653 1975 1 109.50000 418.400000
1745 14653 8184 1 109.50000 418.400000
1745 14653 9671 1 109.50000 418.400000
1975 14653 8184 1 109.50000 418.400000
1975 14653 9671 1 109.50000 418.400000
8184 14653 9671 1 109.50000 418.400000
5152 14654 6367 1 109.50000 418.400000
5152 14654 7976 1 109.50000 418.400000
5152 14654 9674 1 109.50000 418.400000
6367 14654 7976 1 109.50000 418.400000
6367 14654 9674 1 109.50000 418.400000
7976 14654 9674 1 109.50000 418.400000
154 14655 9223 1 109.50000 418.400000
154 14655 9401 1 109.50000 418.400000
154 14655 9675 1 109.50000 418.400000
9223 14655 9401 1 109.50000 418.400000
9223 14655 9675 1 109.50000 418.400000
9401 14655 9675 1 109.50000 418.400000
768 14656 7118 1 109.50000 418.400000
768 14656 8137 1 109.50000 418.400000
768 14656 9676 1 109.50000 418.400000
7118 14656 8137 1 109.50000 418.400000
7118 14656 9676 1 109.50000 418.400000
8137 14656 9676 1 109.50000 418.400000
4586 14657 9677 1 109.50000 418.400000
4586 14657 9678 1 109.50000 418.400000
4586 14657 9679 1 109.50000 418.400000
9677 14657 9678 1 109.50000 418.400000
9677 14657 9679 1 109.50000 418.400000
9678 14657 9679 1 109.50000 418.400000
8465 14658 9680 1 109.50000 418.400000
8465 14658 9681 1 109.50000 418.400000
8465 14658 9682 1 109.50000 418.400000
9680 14658 9681 1 109.50000 418.400000
9680 14658 9682 1 109.50000 418.400000
9681 14658 9682 1 109.50000 418.400000
7632 14659 9131 1 109.50000 418.400000
7632 14659 9206 1 109.50000 418.400000
7632 14659 9684 1 109.50000 418.400000
9131 14659 9206 1 109.50000 418.400000
9131 14659 9684 1 109.50000 418.400000
9206 14659 9684 1 109.50000 418.400000
7139 14660 7146 1 109.50000 418.400000
7139 14660 9685 1 109.50000 418.400000
7139 14660 9686 1 109.50000 418.400000
7146 14660 9685 1 109.50000 418.400000
7146 14660 9686 1 109.50000 418.400000
9685 14660 9686 1 109.50000 418.400000
194 14661 3825 1 109.50000 418.400000
194 14661 3959 1 109.50000 418.400000
194 14661 9688 1 109.50000 418.400000
3825 14661 3959 1 109.50000 418.400000
3825 14661 9688 1 109.50000 418.400000
3959 14661 9688 1 109.50000 418.400000
5836 14662 5837 1 109.50000 418.400000
5836 14662 5838 1 109.50000 418.400000
5836 14662 9689 1 109.50000 418.400000
5837 14662 5838 1 109.50000 418.400000
5837 14662 9689 1 109.50000 418.400000
5838 14662 9689 1 109.50000 418.400000
6489 14663 9556 1 109.50000 418.400000
6489 14663 9691 1 109.50000 418.400000
6489 14663 11164 1 109.50000 418.400000
9556 14663 9691 1 109.50000 418.400000
9556 14663 11164 1 109.50000 418.400000
9691 14663 11164 1 109.50000 418.400000
1578 14664 2841 1 109.50000 418.400000
1578 14664 4140 1 109.50000 418.400000
1578 14664 9692 1 109.50000 418.400000
2841 14664 4140 1 109.50000 418.400000
2841 14664 9692 1 109.50000 418.400000
4140 14664 9692 1 109.50000 418.400000
5606 14665 5648 1 109.50000 418.400000
5606 14665 9299 1 109.50000 418.400000
5606 14665 9693 1 109.50000 418.400000
5648 14665 9299 1 109.50000 418.400000
5648 14665 9693 1 109.50000 418.400000
9299 14665 9693 1 109.50000 418.400000
5102 14666 9694 1 109.50000 418.400000
5102 14666 9695 1 109.50000 418.400000
5102 14666 10680 1 109.50000 418.400000
9694 14666 9695 1 109.50000 418.400000
9694 14666 10680 1 109.50000 418.400000
9695 14666 10680 1 109.50000 418.400000
846 14667 8240 1 109.50000 418.400000
846 14667 9696 1 109.50000 418.400000
846 14667 9697 1 109.50000 418.400000
8240 14667 9696 1 109.50000 418.400000
8240 14667 9697 1 109.50000 418.400000
9696 14667 9697 1 109.50000 418.400000
2458 14668 8915 1 109.50000 418.400000
2458 14668 9030 1 109.50000 418.400000
2458 14668 9698 1 109.50000 418.400000
8915 14668 9030 1 109.50000 418.400000
8915 14668 9698 1 109.50000 418.400000
9030 14668 9698 1 109.50000 418.400000
4509 14669 9699 1 109.50000 418.400000
4509 14669 9700 1 109.50000 418.400000
4509 14669 9701 1 109.50000 418.400000
9699 14669 9700 1 109.50000 418.400000
9699 14669 9701 1 109.50000 418.400000
9700 14669 9701 1 109.50000 418.400000
2361 14670 9702 1 109.50000 418.400000
2361 14670 9703 1 109.50000 418.400000
2361 14670 9704 1 109.50000 418.400000
9702 14670 9703 1 109.50000 418.400000
9702 14670 9704 1 109.50000 418.400000
9703 14670 9704 1 109.50000 418.400000
329 14671 8502 1 109.50000 418.400000
329 14671 9705 1 109.50000 418.400000
329 14671 9706 1 109.50000 418.400000
8502 14671 9705 1 109.50000 418.400000
8502 14671 9706 1 109.50000 418.400000
9705 14671 9706 1 109.50000 418.400000
7628 14672 7945 1 109.50000 418.400000
7628 14672 9708 1 109.50000 418.400000
7628 14672 10467 1 109.50000 418.400000
7945 14672 9708 1 109.50000 418.400000
7945 14672 10467 1 109.50000 418.400000
9708 14672 10467 1 109.50000 418.400000
3831 14673 6470 1 109.50000 418.400000
3831 14673 8834 1 109.50000 418.400000
3831 14673 9709 1 109.50000 418.400000
6470 14673 8834 1 109.50000 418.400000
6470 14673 9709 1 109.50000 418.400000
8834 14673 9709 1 109.50000 418.400000
3951 14674 9494 1 109.50000 418.400000
3951 14674 9710 1 109.50000 418.400000
3951 14674 9711 1 109.50000 418.400000
9494 14674 9710 1 109.50000 418.400000
9494 14674 9711 1 109.50000 418.400000
9710 14674 9711 1 109.50000 418.400000
7659 14675 9712 1 109.50000 418.400000
7659 14675 9713 1 109.50000 418.400000
7659 14675 10259 1 109.50000 418.400000
9712 14675 9713 1 109.50000 418.400000
9712 14675 10259 1 109.50000 418.400000
9713 14675 10259 1 109.50000 418.400000
5728 14676 9163 1 109.50000 418.400000
5728 14676 9714 1 109.50000 418.400000
5728 14676 9715 1 109.50000 418.400000
9163 14676 9714 1 109.50000 418.400000
9163 14676 9715 1 109.50000 418.400000
9714 14676 9715 1 109.50000 418.400000
3094 14677 5099 1 109.50000 418.400000
3094 14677 9716 1 109.50000 418.400000
3094 14677 9717 1 109.50000 418.400000
5099 14677 9716 1 109.50000 418.400000
5099 14677 9717 1 109.50000 418.400000
9716 14677 9717 1 109.50000 418.400000
844 14678 6717 1 109.50000 418.400000
844 14678 8526 1 109.50000 418.400000
844 14678 9718 1 109.50000 418.400000
6717 14678 8526 1 109.50000 418.400000
6717 14678 9718 1 109.50000 418.400000
8526 14678 9718 1 109.50000 418.400000
6226 14679 9719 1 109.50000 418.400000
6226 14679 9720 1 109.50000 418.400000
6226 14679 9721 1 109.50000 418.400000
9719 14679 9720 1 109.50000 418.400000
9719 14679 9721 1 109.50000 418.400000
9720 14679 9721 1 109.50000 418.400000
3104 14680 4081 1 109.50000 418.400000
3104 14680 7579 1 109.50000 418.400000
3104 14680 9298 1 109.50000 418.400000
4081 14680 7579 1 109.50000 418.400000
4081 14680 9298 1 109.50000 418.400000
7579 14680 9298 1 109.50000 418.400000
7133 14681 7899 1 109.50000 418.400000
7133 14681 9722 1 109.50000 418.400000
7133 14681 9723 1 109.50000 418.400000
7899 14681 9722 1 109.50000 418.400000
7899 14681 9723 1 109.50000 418.400000
9722 14681 9723 1 109.50000 418.400000
1043 14682 2382 1 109.50000 418.400000
1043 14682 9403 1 109.50000 418.400000
1043 14682 11311 1 109.50000 418.400000
2382 14682 9403 1 109.50000 418.400000
2382 14682 11311 1 109.50000 418.400000
9403 14682 11311 1 109.50000 418.400000
7707 14683 7721 1 109.50000 418.400000
7707 14683 7767 1 109.50000 418.400000
7707 14683 9724 1 109.50000 418.400000
7721 14683 7767 1 109.50000 418.400000
7721 14683 9724 1 109.50000 418.400000
7767 14683 9724 1 109.50000 418.400000
9037 14684 9437 1 109.50000 418.400000
9037 14684 9718 1 109.50000 418.400000
9037 14684 9725 1 109.50000 418.400000
9437 14684 9718 1 109.50000 418.400000
9437 14684 9725 1 109.50000 418.400000
9718 14684 9725 1 109.50000 418.400000
3323 14685 5935 1 109.50000 418.400000
3323 14685 8638 1 109.50000 418.400000
3323 14685 9726 1 109.50000 418.400000
5935 14685 8638 1 109.50000 418.400000
5935 14685 9726 1 109.50000 418.400000
8638 14685 9726 1 109.50000 418.400000
4261 14686 7346 1 109.50000 418.400000
4261 14686 9059 1 109.50000 418.400000
4261 14686 9728 1 109.50000 418.400000
7346 14686 9059 1 109.50000 418.400000
7346 14686 9728 1 109.50000 418.400000
9059 14686 9728 1 109.50000 418.400000
3465 14687 6839 1 109.50000 418.400000
3465 14687 9596 1 109.50000 418.400000
3465 14687 9730 1 109.50000 418.400000
6839 14687 9596 1 109.50000 418.400000
6839 14687 9730 1 109.50000 418.400000
9596 14687 9730 1 109.50000 418.400000
5905 14688 6873 1 109.50000 418.400000
5905 14688 9260 1 109.50000 418.400000
5905 14688 9702 1 109.50000 418.400000
6873 14688 9260 1 109.50000 418.400000
6873 14688 9702 1 109.50000 418.400000
9260 14688 9702 1 109.50000 418.400000
4121 14689 8086 1 109.50000 418.400000
4121 14689 8553 1 109.50000 418.400000
4121 14689 9731 1 109.50000 418.400000
8086 14689 8553 1 109.50000 418.400000
8086 14689 9731 1 109.50000 418.400000
8553 14689 9731 1 109.50000 418.400000
9732 14690 9733 1 109.50000 418.400000
9732 14690 9734 1 109.50000 418.400000
9732 14690 9735 1 109.50000 418.400000
9733 14690 9734 1 109.50000 418.400000
9733 14690 9735 1 109.50000 418.400000
9734 14690 9735 1 109.50000 418.400000
9351 14691 9736 1 109.50000 418.400000
9351 14691 9737 1 109.50000 418.400000
9351 14691 9738 1 109.50000 418.400000
9736 14691 9737 1 109.50000 418.400000
9736 14691 9738 1 109.50000 418.400000
9737 14691 9738 1 109.50000 418.400000
4134 14692 7739 1 109.50000 418.400000
4134 14692 8529 1 109.50000 418.400000
4134 14692 9739 1 109.50000 418.400000
7739 14692 8529 1 109.50000 418.400000
7739 14692 9739 1 109.50000 418.400000
8529 14692 9739 1 109.50000 418.400000
4177 14693 5759 1 109.50000 418.400000
4177 14693 5760 1 109.50000 418.400000
4177 14693 6978 1 109.50000 418.400000
5759 14693 5760 1 109.50000 418.400000
5759 14693 6978 1 109.50000 418.400000
5760 14693 6978 1 109.50000 418.400000
1236 14694 1554 1 109.50000 418.400000
1236 14694 6389 1 109.50000 418.400000
1236 14694 9741 1 109.50000 418.400000
1554 14694 6389 1 109.50000 418.400000
1554 14694 9741 1 109.50000 418.400000
6389 14694 9741 1 109.50000 418.400000
1681 14695 7596 1 109.50000 418.400000
1681 14695 9742 1 109.50000 418.400000
1681 14695 9743 1 109.50000 418.400000
7596 14695 9742 1 109.50000 418.400000
7596 14695 9743 1 109.50000 418.400000
9742 14695 9743 1 109.50000 418.400000
1155 14696 8974 1 109.50000 418.400000
1155 14696 9744 1 109.50000 418.400000
1155 14696 9745 1 109.50000 418.400000
8974 14696 9744 1 109.50000 418.400000
8974 14696 9745 1 109.50000 418.400000
9744 14696 9745 1 109.50000 418.400000
3348 14697 9159 1 109.50000 418.400000
3348 14697 9746 1 109.50000 418.400000
3348 14697 9747 1 109.50000 418.400000
9159 14697 9746 1 109.50000 418.400000
9159 14697 9747 1 109.50000 418.400000
9746 14697 9747 1 109.50000 418.400000
1417 14698 6270 1 109.50000 418.400000
1417 14698 7238 1 109.50000 418.400000
1417 14698 9748 1 109.50000 418.400000
6270 14698 7238 1 109.50000 418.400000
6270 14698 9748 1 109.50000 418.400000
7238 14698 9748 1 109.50000 418.400000
7686 14699 9548 1 109.50000 418.400000
7686 14699 9749 1 109.50000 418.400000
7686 14699 9750 1 109.50000 418.400000
9548 14699 9749 1 109.50000 418.400000
9548 14699 9750 1 109.50000 418.400000
9749 14699 9750 1 109.50000 418.400000
4052 14700 9751 1 109.50000 418.400000
4052 14700 9752 1 109.50000 418.400000
4052 14700 9753 1 109.50000 418.400000
9751 14700 9752 1 109.50000 418.400000
9751 14700 9753 1 109.50000 418.400000
9752 14700 9753 1 109.50000 418.400000
1790 14701 4943 1 109.50000 418.400000
1790 14701 7891 1 109.50000 418.400000
1790 14701 9754 1 109.50000 418.400000
4943 14701 7891 1 109.50000 418.400000
4943 14701 9754 1 109.50000 418.400000
7891 14701 9754 1 109.50000 418.400000
6590 14702 9246 1 109.50000 418.400000
6590 14702 9755 1 109.50000 418.400000
6590 14702 9756 1 109.50000 418.400000
9246 14702 9755 1 109.50000 418.400000
9246 14702 9756 1 109.50000 418.400000
9755 14702 9756 1 109.50000 418.400000
1090 14703 7562 1 109.50000 418.400000
1090 14703 9310 1 109.50000 418.400000
1090 14703 9540 1 109.50000 418.400000
7562 14703 9310 1 109.50000 418.400000
7562 14703 9540 1 109.50000 418.400000
9310 14703 9540 1 109.50000 418.400000
5707 14704 7296 1 109.50000 418.400000
5707 14704 7462 1 109.50000 418.400000
5707 14704 9251 1 109.50000 418.400000
7296 14704 7462 1 109.50000 418.400000
7296 14704 9251 1 109.50000 418.400000
7462 14704 9251 1 109.50000 418.400000
2261 14705 4329 1 109.50000 418.400000
2261 14705 7009 1 109.50000 418.400000
2261 14705 8618 1 109.50000 418.400000
4329 14705 7009 1 109.50000 418.400000
4329 14705 8618 1 109.50000 418.400000
7009 14705 8618 1 109.50000 418.400000
275 14706 6663 1 109.50000 418.400000
275 14706 9757 1 109.50000 418.400000
275 14706 9758 1 109.50000 418.400000
6663 14706 9757 1 109.50000 418.400000
6663 14706 9758 1 109.50000 418.400000
9757 14706 9758 1 109.50000 418.400000
3169 14707 7416 1 109.50000 418.400000
3169 14707 7693 1 109.50000 418.400000
3169 14707 7695 1 109.50000 418.400000
7416 14707 7693 1 109.50000 418.400000
7416 14707 7695 1 109.50000 418.400000
7693 14707 7695 1 109.50000 418.400000
1999 14708 7985 1 109.50000 418.400000
1999 14708 8283 1 109.50000 418.400000
1999 14708 9760 1 109.50000 418.400000
7985 14708 8283 1 109.50000 418.400000
7985 14708 9760 1 109.50000 418.400000
8283 14708 9760 1 109.50000 418.400000
1326 14709 2891 1 109.50000 418.400000
1326 14709 9598 1 109.50000 418.400000
1326 14709 9761 1 109.50000 418.400000
2891 14709 9598 1 109.50000 418.400000
2891 14709 9761 1 109.50000 418.400000
9598 14709 9761 1 109.50000 418.400000
448 14710 1622 1 109.50000 418.400000
448 14710 9762 1 109.50000 418.400000
448 14710 9763 1 109.50000 418.400000
1622 14710 9762 1 109.50000 418.400000
1622 14710 9763 1 109.50000 418.400000
9762 14710 9763 1 109.50000 418.400000
4813 14711 8219 1 109.50000 418.400000
4813 14711 9241 1 109.50000 418.400000
4813 14711 9766 1 109.50000 418.400000
8219 14711 9241 1 109.50000 418.400000
8219 14711 9766 1 109.50000 418.400000
9241 14711 9766 1 109.50000 418.400000
2363 14712 9519 1 109.50000 418.400000
2363 14712 9767 1 109.50000 418.400000
2363 14712 9768 1 109.50000 418.400000
9519 14712 9767 1 109.50000 418.400000
9519 14712 9768 1 109.50000 418.400000
9767 14712 9768 1 109.50000 418.400000
4323 14713 9629 1 109.50000 418.400000
4323 14713 9769 1 109.50000 418.400000
4323 14713 9770 1 109.50000 418.400000
9629 14713 9769 1 109.50000 418.400000
9629 14713 9770 1 109.50000 418.400000
9769 14713 9770 1 109.50000 418.400000
6613 14714 6894 1 109.50000 418.400000
6613 14714 9771 1 109.50000 418.400000
6613 14714 9772 1 109.50000 418.400000
6894 14714 9771 1 109.50000 418.400000
6894 14714 9772 1 109.50000 418.400000
9771 14714 9772 1 109.50000 418.400000
1076 14715 4689 1 109.50000 418.400000
1076 14715 7836 1 109.50000 418.400000
1076 14715 11338 1 109.50000 418.400000
4689 14715 7836 1 109.50000 418.400000
4689 14715 11338 1 109.50000 418.400000
7836 14715 11338 1 109.50000 418.400000
1927 14716 8235 1 109.50000 418.400000
1927 14716 8686 1 109.50000 418.400000
1927 14716 9773 1 109.50000 418.400000
8235 14716 8686 1 109.50000 418.400000
8235 14716 9773 1 109.50000 418.400000
8686 14716 9773 1 109.50000 418.400000
4738 14717 9755 1 109.50000 418.400000
4738 14717 9774 1 109.50000 418.400000
4738 14717 11199 1 109.50000 418.400000
9755 14717 9774 1 109.50000 418.400000
9755 14717 11199 1 109.50000 418.400000
9774 14717 11199 1 109.50000 418.400000
574 14718 3548 1 109.50000 418.400000
574 14718 5478 1 109.50000 418.400000
574 14718 9775 1 109.50000 418.400000
3548 14718 5478 1 109.50000 418.400000
3548 14718 9775 1 109.50000 418.400000
5478 14718 9775 1 109.50000 418.400000
6871 14719 9379 1 109.50000 418.400000
6871 14719 9530 1 109.50000 418.400000
6871 14719 9776 1 109.50000 418.400000
9379 14719 9530 1 109.50000 418.400000
9379 14719 9776 1 109.50000 418.400000
9530 14719 9776 1 109.50000 418.400000
2596 14720 8430 1 109.50000 418.400000
2596 14720 9778 1 109.50000 418.400000
2596 14720 9779 1 109.50000 418.400000
8430 14720 9778 1 109.50000 418.400000
8430 14720 9779 1 109.50000 418.400000
9778 14720 9779 1 109.50000 418.400000
6902 14721 6962 1 109.50000 418.400000
6902 14721 7736 1 109.50000 418.400000
6902 14721 9780 1 109.50000 418.400000
6962 14721 7736 1 109.50000 418.400000
6962 14721 9780 1 109.50000 418.400000
7736 14721 9780 1 109.50000 418.400000
5502 14722 7941 1 109.50000 418.400000
5502 14722 9781 1 109.50000 418.400000
5502 14722 9782 1 109.50000 418.400000
7941 14722 9781 1 109.50000 418.400000
7941 14722 9782 1 109.50000 418.400000
9781 14722 9782 1 109.50000 418.400000
344 14723 9783 1 109.50000 418.400000
344 14723 9784 1 109.50000 418.400000
344 14723 9785 1 109.50000 418.400000
9783 14723 9784 1 109.50000 418.400000
9783 14723 9785 1 109.50000 418.400000
9784 14723 9785 1 109.50000 418.400000
750 14724 3381 1 109.50000 418.400000
750 14724 9044 1 109.50000 418.400000
750 14724 9786 1 109.50000 418.400000
3381 14724 9044 1 109.50000 418.400000
3381 14724 9786 1 109.50000 418.400000
9044 14724 9786 1 109.50000 418.400000
3963 14725 7838 1 109.50000 418.400000
3963 14725 9787 1 109.50000 418.400000
3963 14725 9788 1 109.50000 418.400000
7838 14725 9787 1 109.50000 418.400000
7838 14725 9788 1 109.50000 418.400000
9787 14725 9788 1 109.50000 418.400000
2336 14726 5239 1 109.50000 418.400000
2336 14726 6607 1 109.50000 418.400000
2336 14726 9789 1 109.50000 418.400000
5239 14726 6607 1 109.50000 418.400000
5239 14726 9789 1 109.50000 418.400000
6607 14726 9789 1 109.50000 418.400000
8000 14727 9790 1 109.50000 418.400000
8000 14727 9791 1 109.50000 418.400000
8000 14727 9792 1 109.50000 418.400000
9790 14727 9791 1 109.50000 418.400000
9790 14727 9792 1 109.50000 418.400000
9791 14727 9792 1 109.50000 418.400000
3402 14728 5211 1 109.50000 418.400000
3402 14728 8919 1 109.50000 418.400000
3402 14728 9237 1 109.50000 418.400000
5211 14728 8919 1 109.50000 418.400000
5211 14728 9237 1 109.50000 418.400000
8919 14728 9237 1 109.50000 418.400000
3809 14729 8912 1 109.50000 418.400000
3809 14729 9761 1 109.50000 418.400000
3809 14729 9793 1 109.50000 418.400000
8912 14729 9761 1 109.50000 418.400000
8912 14729 9793 1 109.50000 418.400000
9761 14729 9793 1 109.50000 418.400000
1386 14730 4055 1 109.50000 418.400000
1386 14730 9794 1 109.50000 418.400000
1386 14730 9795 1 109.50000 418.400000
4055 14730 9794 1 109.50000 418.400000
4055 14730 9795 1 109.50000 418.400000
9794 14730 9795 1 109.50000 418.400000
3668 14731 7846 1 109.50000 418.400000
3668 14731 9796 1 109.50000 418.400000
3668 14731 9797 1 109.50000 418.400000
7846 14731 9796 1 109.50000 418.400000
7846 14731 9797 1 109.50000 418.400000
9796 14731 9797 1 109.50000 418.400000
1370 14732 2988 1 109.50000 418.400000
1370 14732 9663 1 109.50000 418.400000
1370 14732 11158 1 109.50000 418.400000
2988 14732 9663 1 109.50000 418.400000
2988 14732 11158 1 109.50000 418.400000
9663 14732 11158 1 109.50000 418.400000
5642 14733 8702 1 109.50000 418.400000
5642 14733 9798 1 109.50000 418.400000
5642 14733 9799 1 109.50000 418.400000
8702 14733 9798 1 109.50000 418.400000
8702 14733 9799 1 109.50000 418.400000
9798 14733 9799 1 109.50000 418.400000
2322 14734 6794 1 109.50000 418.400000
2322 14734 9370 1 109.50000 418.400000
2322 14734 9428 1 109.50000 418.400000
6794 14734 9370 1 109.50000 418.400000
6794 14734 9428 1 109.50000 418.400000
9370 14734 9428 1 109.50000 418.400000
3696 14735 8678 1 109.50000 418.400000
3696 14735 9800 1 109.50000 418.400000
3696 14735 9801 1 109.50000 418.400000
8678 14735 9800 1 109.50000 418.400000
8678 14735 9801 1 109.50000 418.400000
9800 14735 9801 1 109.50000 418.400000
6054 14736 9764 1 109.50000 418.400000
6054 14736 9802 1 109.50000 418.400000
6054 14736 9803 1 109.50000 418.400000
9764 14736 9802 1 109.50000 418.400000
9764 14736 9803 1 109.50000 418.400000
9802 14736 9803 1 109.50000 418.400000
5840 14737 8426 1 109.50000 418.400000
5840 14737 8956 1 109.50000 418.400000
5840 14737 11155 1 109.50000 418.400000
8426 14737 8956 1 109.50000 418.400000
8426 14737 11155 1 109.50000 418.400000
8956 14737 11155 1 109.50000 418.400000
3488 14738 4355 1 109.50000 418.400000
3488 14738 8327 1 109.50000 418.400000
3488 14738 9804 1 109.50000 418.400000
4355 14738 8327 1 109.50000 418.400000
4355 14738 9804 1 109.50000 418.400000
8327 14738 9804 1 109.50000 418.400000
2085 14739 2603 1 109.50000 418.400000
2085 14739 4816 1 109.50000 418.400000
2085 14739 7262 1 109.50000 418.400000
2603 14739 4816 1 109.50000 418.400000
2603 14739 7262 1 109.50000 418.400000
4816 14739 7262 1 109.50000 418.400000
1823 14740 4073 1 109.50000 418.400000
1823 14740 8805 1 109.50000 418.400000
1823 14740 9805 1 109.50000 418.400000
4073 14740 8805 1 109.50000 418.400000
4073 14740 9805 1 109.50000 418.400000
8805 14740 9805 1 109.50000 418.400000
949 14741 951 1 109.50000 418.400000
949 14741 7132 1 109.50000 418.400000
949 14741 9807 1 109.50000 418.400000
951 14741 7132 1 109.50000 418.400000
951 14741 9807 1 109.50000 418.400000
7132 14741 9807 1 109.50000 418.400000
4626 14742 5563 1 109.50000 418.400000
4626 14742 9809 1 109.50000 418.400000
4626 14742 9810 1 109.50000 418.400000
5563 14742 9809 1 109.50000 418.400000
5563 14742 9810 1 109.50000 418.400000
9809 14742 9810 1 109.50000 418.400000
1217 14743 9224 1 109.50000 418.400000
1217 14743 9811 1 109.50000 418.400000
1217 14743 9812 1 109.50000 418.400000
9224 14743 9811 1 109.50000 418.400000
9224 14743 9812 1 109.50000 418.400000
9811 14743 9812 1 109.50000 418.400000
5683 14744 9813 1 109.50000 418.400000
5683 14744 9814 1 109.50000 418.400000
5683 14744 9815 1 109.50000 418.400000
9813 14744 9814 1 109.50000 418.400000
9813 14744 9815 1 109.50000 418.400000
9814 14744 9815 1 109.50000 418.400000
3122 14745 4396 1 109.50000 418.400000
3122 14745 8602 1 109.50000 418.400000
3122 14745 9816 1 109.50000 418.400000
4396 14745 8602 1 109.50000 418.400000
4396 14745 9816 1 109.50000 418.400000
8602 14745 9816 1 109.50000 418.400000
3988 14746 6081 1 109.50000 418.400000
3988 14746 9817 1 109.50000 418.400000
3988 14746 9818 1 109.50000 418.400000
6081 14746 9817 1 109.50000 418.400000
6081 14746 9818 1 109.50000 418.400000
9817 14746 9818 1 109.50000 418.400000
2607 14747 6743 1 109.50000 418.400000
2607 14747 9819 1 109.50000 418.400000
2607 14747 9820 1 109.50000 418.400000
6743 14747 9819 1 109.50000 418.400000
6743 14747 9820 1 109.50000 418.400000
9819 14747 9820 1 109.50000 418.400000
476 14748 8108 1 109.50000 418.400000
476 14748 8496 1 109.50000 418.400000
476 14748 9065 1 109.50000 418.400000
8108 14748 8496 1 109.50000 418.400000
8108 14748 9065 1 109.50000 418.400000
8496 14748 9065 1 109.50000 418.400000
258 14749 4562 1 109.50000 418.400000
258 14749 8018 1 109.50000 418.400000
258 14749 9821 1 109.50000 418.400000
4562 14749 8018 1 109.50000 418.400000
4562 14749 9821 1 109.50000 418.400000
8018 14749 9821 1 109.50000 418.400000
7788 14750 9822 1 109.50000 418.400000
7788 14750 9823 1 109.50000 418.400000
7788 14750 11269 1 109.50000 418.400000
9822 14750 9823 1 109.50000 418.400000
9822 14750 11269 1 109.50000 418.400000
9823 14750 11269 1 109.50000 418.400000
2047 14751 5230 1 109.50000 418.400000
2047 14751 6643 1 109.50000 418.400000
2047 14751 11258 1 109.50000 418.400000
5230 14751 6643 1 109.50000 418.400000
5230 14751 11258 1 109.50000 418.400000
6643 14751 11258 1 109.50000 418.400000
596 14752 736 1 109.50000 418.400000
596 14752 9813 1 109.50000 418.400000
596 14752 9826 1 109.50000 418.400000
736 14752 9813 1 109.50000 418.400000
736 14752 9826 1 109.50000 418.400000
9813 14752 9826 1 109.50000 418.400000
2945 14753 9386 1 109.50000 418.400000
2945 14753 9827 1 109.50000 418.400000
2945 14753 9828 1 109.50000 418.400000
9386 14753 9827 1 109.50000 418.400000
9386 14753 9828 1 109.50000 418.400000
9827 14753 9828 1 109.50000 418.400000
936 14754 6945 1 109.50000 418.400000
936 14754 9829 1 109.50000 418.400000
936 14754 9830 1 109.50000 418.400000
6945 14754 9829 1 109.50000 418.400000
6945 14754 9830 1 109.50000 418.400000
9829 14754 9830 1 109.50000 418.400000
8443 14755 9831 1 109.50000 418.400000
8443 14755 9832 1 109.50000 418.400000
8443 14755 9833 1 109.50000 418.400000
9831 14755 9832 1 109.50000 418.400000
9831 14755 9833 1 109.50000 418.400000
9832 14755 9833 1 109.50000 418.400000
9129 14756 9538 1 109.50000 418.400000
9129 14756 9605 1 109.50000 418.400000
9129 14756 9834 1 109.50000 418.400000
9538 14756 9605 1 109.50000 418.400000
9538 14756 9834 1 109.50000 418.400000
9605 14756 9834 1 109.50000 418.400000
4017 14757 7474 1 109.50000 418.400000
4017 14757 9261 1 109.50000 418.400000
4017 14757 9835 1 109.50000 418.400000
7474 14757 9261 1 109.50000 418.400000
7474 14757 9835 1 109.50000 418.400000
9261 14757 9835 1 109.50000 418.400000
4847 14758 9836 1 109.50000 418.400000
4847 14758 9837 1 109.50000 418.400000
4847 14758 9838 1 109.50000 418.400000
9836 14758 9837 1 109.50000 418.400000
9836 14758 9838 1 109.50000 418.400000
9837 14758 9838 1 109.50000 418.400000
743 14759 3003 1 109.50000 418.400000
743 14759 3084 1 109.50000 418.400000
743 14759 3843 1 109.50000 418.400000
3003 14759 3084 1 109.50000 418.400000
3003 14759 3843 1 109.50000 418.400000
3084 14759 3843 1 109.50000 418.400000
810 14760 4132 1 109.50000 418.400000
810 14760 9839 1 109.50000 418.400000
810 14760 9840 1 109.50000 418.400000
4132 14760 9839 1 109.50000 418.400000
4132 14760 9840 1 109.50000 418.400000
9839 14760 9840 1 109.50000 418.400000
5722 14761 9392 1 109.50000 418.400000
5722 14761 9841 1 109.50000 418.400000
5722 14761 9842 1 109.50000 418.400000
9392 14761 9841 1 109.50000 418.400000
9392 14761 9842 1 109.50000 418.400000
9841 14761 9842 1 109.50000 418.400000
1199 14762 1558 1 109.50000 418.400000
1199 14762 2237 1 109.50000 418.400000
1199 14762 6786 1 109.50000 418.400000
1558 14762 2237 1 109.50000 418.400000
1558 14762 6786 1 109.50000 418.400000
2237 14762 6786 1 109.50000 418.400000
2094 14763 7680 1 109.50000 418.400000
2094 14763 9843 1 109.50000 418.400000
2094 14763 9844 1 109.50000 418.400000
7680 14763 9843 1 109.50000 418.400000
7680 14763 9844 1 109.50000 418.400000
9843 14763 9844 1 109.50000 418.400000
1517 14764 6063 1 109.50000 418.400000
1517 14764 7914 1 109.50000 418.400000
1517 14764 8491 1 109.50000 418.400000
6063 14764 7914 1 109.50000 418.400000
6063 14764 8491 1 109.50000 418.400000
7914 14764 8491 1 109.50000 418.400000
6604 14765 9845 1 109.50000 418.400000
6604 14765 9846 1 109.50000 418.400000
6604 14765 9847 1 109.50000 418.400000
9845 14765 9846 1 109.50000 418.400000
9845 14765 9847 1 109.50000 418.400000
9846 14765 9847 1 109.50000 418.400000
3661 14766 3886 1 109.50000 418.400000
3661 14766 7401 1 109.50000 418.400000
3661 14766 9848 1 109.50000 418.400000
3886 14766 7401 1 109.50000 418.400000
3886 14766 9848 1 109.50000 418.400000
7401 14766 9848 1 109.50000 418.400000
2364 14767 7557 1 109.50000 418.400000
2364 14767 9849 1 109.50000 418.400000
2364 14767 9850 1 109.50000 418.400000
7557 14767 9849 1 109.50000 418.400000
7557 14767 9850 1 109.50000 418.400000
9849 14767 9850 1 109.50000 418.400000
3551 14768 6694 1 109.50000 418.400000
3551 14768 8092 1 109.50000 418.400000
3551 14768 9851 1 109.50000 418.400000
6694 14768 8092 1 109.50000 418.400000
6694 14768 9851 1 109.50000 418.400000
8092 14768 9851 1 109.50000 418.400000
149 14769 2549 1 109.50000 418.400000
149 14769 9854 1 109.50000 418.400000
149 14769 10266 1 109.50000 418.400000
2549 14769 9854 1 109.50000 418.400000
2549 14769 10266 1 109.50000 418.400000
9854 14769 10266 1 109.50000 418.400000
3145 14770 3949 1 109.50000 418.400000
3145 14770 6087 1 109.50000 418.400000
3145 14770 8795 1 109.50000 418.400000
3949 14770 6087 1 109.50000 418.400000
3949 14770 8795 1 109.50000 418.400000
6087 14770 8795 1 109.50000 418.400000
3120 14771 6498 1 109.50000 418.400000
3120 14771 9855 1 109.50000 418.400000
3120 14771 9856 1 109.50000 418.400000
6498 14771 9855 1 109.50000 418.400000
6498 14771 9856 1 109.50000 418.400000
9855 14771 9856 1 109.50000 418.400000
1282 14772 6058 1 109.50000 418.400000
1282 14772 7358 1 109.50000 418.400000
1282 14772 9857 1 109.50000 418.400000
6058 14772 7358 1 109.50000 418.400000
6058 14772 9857 1 109.50000 418.400000
7358 14772 9857 1 109.50000 418.400000
2741 14773 5321 1 109.50000 418.400000
2741 14773 9858 1 109.50000 418.400000
2741 14773 9859 1 109.50000 418.400000
5321 14773 9858 1 109.50000 418.400000
5321 14773 9859 1 109.50000 418.400000
9858 14773 9859 1 109.50000 418.400000
4934 14774 7230 1 109.50000 418.400000
4934 14774 9860 1 109.50000 418.400000
4934 14774 9861 1 109.50000 418.400000
7230 14774 9860 1 109.50000 418.400000
7230 14774 9861 1 109.50000 418.400000
9860 14774 9861 1 109.50000 418.400000
3096 14775 7236 1 109.50000 418.400000
3096 14775 9862 1 109.50000 418.400000
3096 14775 9863 1 109.50000 418.400000
7236 14775 9862 1 109.50000 418.400000
7236 14775 9863 1 109.50000 418.400000
9862 14775 9863 1 109.50000 418.400000
1065 14776 6914 1 109.50000 418.400000
1065 14776 8062 1 109.50000 418.400000
1065 14776 9864 1 109.50000 418.400000
6914 14776 8062 1 109.50000 418.400000
6914 14776 9864 1 109.50000 418.400000
8062 14776 9864 1 109.50000 418.400000
4805 14777 4860 1 109.50000 418.400000
4805 14777 9865 1 109.50000 418.400000
4805 14777 9866 1 109.50000 418.400000
4860 14777 9865 1 109.50000 418.400000
4860 14777 9866 1 109.50000 418.400000
9865 14777 9866 1 109.50000 418.400000
8790 14778 9867 1 109.50000 418.400000
8790 14778 9868 1 109.50000 418.400000
8790 14778 9869 1 109.50000 418.400000
9867 14778 9868 1 109.50000 418.400000
9867 14778 9869 1 109.50000 418.400000
9868 14778 9869 1 109.50000 418.400000
5690 14779 7678 1 109.50000 418.400000
5690 14779 9350 1 109.50000 418.400000
5690 14779 9870 1 109.50000 418.400000
7678 14779 9350 1 109.50000 418.400000
7678 14779 9870 1 109.50000 418.400000
9350 14779 9870 1 109.50000 418.400000
4343 14780 8848 1 109.50000 418.400000
4343 14780 9871 1 109.50000 418.400000
4343 14780 9872 1 109.50000 418.400000
8848 14780 9871 1 109.50000 418.400000
8848 14780 9872 1 109.50000 418.400000
9871 14780 9872 1 109.50000 418.400000
8158 14781 9393 1 109.50000 418.400000
8158 14781 9873 1 109.50000 418.400000
8158 14781 9874 1 109.50000 418.400000
9393 14781 9873 1 109.50000 418.400000
9393 14781 9874 1 109.50000 418.400000
9873 14781 9874 1 109.50000 418.400000
4247 14782 6434 1 109.50000 418.400000
4247 14782 9875 1 109.50000 418.400000
4247 14782 9876 1 109.50000 418.400000
6434 14782 9875 1 109.50000 418.400000
6434 14782 9876 1 109.50000 418.400000
9875 14782 9876 1 109.50000 418.400000
3502 14783 9811 1 109.50000 418.400000
3502 14783 9877 1 109.50000 418.400000
3502 14783 9878 1 109.50000 418.400000
9811 14783 9877 1 109.50000 418.400000
9811 14783 9878 1 109.50000 418.400000
9877 14783 9878 1 109.50000 418.400000
1516 14784 7361 1 109.50000 418.400000
1516 14784 7996 1 109.50000 418.400000
1516 14784 9879 1 109.50000 418.400000
7361 14784 7996 1 109.50000 418.400000
7361 14784 9879 1 109.50000 418.400000
7996 14784 9879 1 109.50000 418.400000
6798 14785 9178 1 109.50000 418.400000
6798 14785 9880 1 109.50000 418.400000
6798 14785 9881 1 109.50000 418.400000
9178 14785 9880 1 109.50000 418.400000
9178 14785 9881 1 109.50000 418.400000
9880 14785 9881 1 109.50000 418.400000
7489 14786 8816 1 109.50000 418.400000
7489 14786 9882 1 109.50000 418.400000
7489 14786 9883 1 109.50000 418.400000
8816 14786 9882 1 109.50000 418.400000
8816 14786 9883 1 109.50000 418.400000
9882 14786 9883 1 109.50000 418.400000
860 14787 6970 1 109.50000 418.400000
860 14787 9787 1 109.50000 418.400000
860 14787 9884 1 109.50000 418.400000
6970 14787 9787 1 109.50000 418.400000
6970 14787 9884 1 109.50000 418.400000
9787 14787 9884 1 109.50000 418.400000
1580 14788 6588 1 109.50000 418.400000
1580 14788 6589 1 109.50000 418.400000
1580 14788 9769 1 109.50000 418.400000
6588 14788 6589 1 109.50000 418.400000
6588 14788 9769 1 109.50000 418.400000
6589 14788 9769 1 109.50000 418.400000
2007 14789 2403 1 109.50000 418.400000
2007 14789 2656 1 109.50000 418.400000
2007 14789 7299 1 109.50000 418.400000
2403 14789 2656 1 109.50000 418.400000
2403 14789 7299 1 109.50000 418.400000
2656 14789 7299 1 109.50000 418.400000
1202 14790 2804 1 109.50000 418.400000
1202 14790 4115 1 109.50000 418.400000
1202 14790 9885 1 109.50000 418.400000
2804 14790 4115 1 109.50000 418.400000
2804 14790 9885 1 109.50000 418.400000
4115 14790 9885 1 109.50000 418.400000
517 14791 9217 1 109.50000 418.400000
517 14791 9218 1 109.50000 418.400000
517 14791 9465 1 109.50000 418.400000
9217 14791 9218 1 109.50000 418.400000
9217 14791 9465 1 109.50000 418.400000
9218 14791 9465 1 109.50000 418.400000
4415 14792 4832 1 109.50000 418.400000
4415 14792 4913 1 109.50000 418.400000
4415 14792 7050 1 109.50000 418.400000
4832 14792 4913 1 109.50000 418.400000
4832 14792 7050 1 109.50000 418.400000
4913 14792 7050 1 109.50000 418.400000
50 14793 4728 1 109.50000 418.400000
50 14793 9676 1 109.50000 418.400000
50 14793 9886 1 109.50000 418.400000
4728 14793 9676 1 109.50000 418.400000
4728 14793 9886 1 109.50000 418.400000
9676 14793 9886 1 109.50000 418.400000
1735 14794 2010 1 109.50000 418.400000
1735 14794 2080 1 109.50000 418.400000
1735 14794 5941 1 109.50000 418.400000
2010 14794 2080 1 109.50000 418.400000
2010 14794 5941 1 109.50000 418.400000
2080 14794 5941 1 109.50000 418.400000
1233 14795 9069 1 109.50000 418.400000
1233 14795 9888 1 109.50000 418.400000
1233 14795 9889 1 109.50000 418.400000
9069 14795 9888 1 109.50000 418.400000
9069 14795 9889 1 109.50000 418.400000
9888 14795 9889 1 109.50000 418.400000
2290 14796 9890 1 109.50000 418.400000
2290 14796 9891 1 109.50000 418.400000
2290 14796 9892 1 109.50000 418.400000
9890 14796 9891 1 109.50000 418.400000
9890 14796 9892 1 109.50000 418.400000
9891 14796 9892 1 109.50000 418.400000
820 14797 2374 1 109.50000 418.400000
820 14797 9893 1 109.50000 418.400000
820 14797 9894 1 109.50000 418.400000
2374 14797 9893 1 109.50000 418.400000
2374 14797 9894 1 109.50000 418.400000
9893 14797 9894 1 109.50000 418.400000
6025 14798 8551 1 109.50000 418.400000
6025 14798 8944 1 109.50000 418.400000
6025 14798 9895 1 109.50000 418.400000
8551 14798 8944 1 109.50000 418.400000
8551 14798 9895 1 109.50000 418.400000
8944 14798 9895 1 109.50000 418.400000
6618 14799 6956 1 109.50000 418.400000
6618 14799 7775 1 109.50000 418.400000
6618 14799 9896 1 109.50000 418.400000
6956 14799 7775 1 109.50000 418.400000
6956 14799 9896 1 109.50000 418.400000
7775 14799 9896 1 109.50000 418.400000
2376 14800 5223 1 109.50000 418.400000
2376 14800 9897 1 109.50000 418.400000
2376 14800 9898 1 109.50000 418.400000
5223 14800 9897 1 109.50000 418.400000
5223 14800 9898 1 109.50000 418.400000
9897 14800 9898 1 109.50000 418.400000
6077 14801 6451 1 109.50000 418.400000
6077 14801 8315 1 109.50000 418.400000
6077 14801 9899 1 109.50000 418.400000
6451 14801 8315 1 109.50000 418.400000
6451 14801 9899 1 109.50000 418.400000
8315 14801 9899 1 109.50000 418.400000
1290 14802 1397 1 109.50000 418.400000
1290 14802 6842 1 109.50000 418.400000
1290 14802 9669 1 109.50000 418.400000
1397 14802 6842 1 109.50000 418.400000
1397 14802 9669 1 109.50000 418.400000
6842 14802 9669 1 109.50000 418.400000
9491 14803 9900 1 109.50000 418.400000
9491 14803 9901 1 109.50000 418.400000
9491 14803 9902 1 109.50000 418.400000
9900 14803 9901 1 109.50000 418.400000
9900 14803 9902 1 109.50000 418.400000
9901 14803 9902 1 109.50000 418.400000
6400 14804 9485 1 109.50000 418.400000
6400 14804 9906 1 109.50000 418.400000
6400 14804 9907 1 109.50000 418.400000
9485 14804 9906 1 109.50000 418.400000
9485 14804 9907 1 109.50000 418.400000
9906 14804 9907 1 109.50000 418.400000
6501 14805 7524 1 109.50000 418.400000
6501 14805 9908 1 109.50000 418.400000
6501 14805 9909 1 109.50000 418.400000
7524 14805 9908 1 109.50000 418.400000
7524 14805 9909 1 109.50000 418.400000
9908 14805 9909 1 109.50000 418.400000
8372 14806 9750 1 109.50000 418.400000
8372 14806 9910 1 109.50000 418.400000
8372 14806 11209 1 109.50000 418.400000
9750 14806 9910 1 109.50000 418.400000
9750 14806 11209 1 109.50000 418.400000
9910 14806 11209 1 109.50000 418.400000
2131 14807 2740 1 109.50000 418.400000
2131 14807 5771 1 109.50000 418.400000
2131 14807 9911 1 109.50000 418.400000
2740 14807 5771 1 109.50000 418.400000
2740 14807 9911 1 109.50000 418.400000
5771 14807 9911 1 109.50000 418.400000
4405 14808 6207 1 109.50000 418.400000
4405 14808 8102 1 109.50000 418.400000
4405 14808 9912 1 109.50000 418.400000
6207 14808 8102 1 109.50000 418.400000
6207 14808 9912 1 109.50000 418.400000
8102 14808 9912 1 109.50000 418.400000
283 14809 9119 1 109.50000 418.400000
283 14809 9307 1 109.50000 418.400000
283 14809 9913 1 109.50000 418.400000
9119 14809 9307 1 109.50000 418.400000
9119 14809 9913 1 109.50000 418.400000
9307 14809 9913 1 109.50000 418.400000
1159 14810 7939 1 109.50000 418.400000
1159 14810 8543 1 109.50000 418.400000
1159 14810 9419 1 109.50000 418.400000
7939 14810 8543 1 109.50000 418.400000
7939 14810 9419 1 109.50000 418.400000
8543 14810 9419 1 109.50000 418.400000
244 14811 7626 1 109.50000 418.400000
244 14811 8793 1 109.50000 418.400000
244 14811 9192 1 109.50000 418.400000
7626 14811 8793 1 109.50000 418.400000
7626 14811 9192 1 109.50000 418.400000
8793 14811 9192 1 109.50000 418.400000
3882 14812 4474 1 109.50000 418.400000
3882 14812 9914 1 109.50000 418.400000
3882 14812 9915 1 109.50000 418.400000
4474 14812 9914 1 109.50000 418.400000
4474 14812 9915 1 109.50000 418.400000
9914 14812 9915 1 109.50000 418.400000
3508 14813 7768 1 109.50000 418.400000
3508 14813 8733 1 109.50000 418.400000
3508 14813 9916 1 109.50000 418.400000
7768 14813 8733 1 109.50000 418.400000
7768 14813 9916 1 109.50000 418.400000
8733 14813 9916 1 109.50000 418.400000
3906 14814 6845 1 109.50000 418.400000
3906 14814 9917 1 109.50000 418.400000
3906 14814 9918 1 109.50000 418.400000
6845 14814 9917 1 109.50000 418.400000
6845 14814 9918 1 109.50000 418.400000
9917 14814 9918 1 109.50000 418.400000
6841 14815 7138 1 109.50000 418.400000
6841 14815 9919 1 109.50000 418.400000
6841 14815 9920 1 109.50000 418.400000
7138 14815 9919 1 109.50000 418.400000
7138 14815 9920 1 109.50000 418.400000
9919 14815 9920 1 109.50000 418.400000
6195 14816 7176 1 109.50000 418.400000
6195 14816 8302 1 109.50000 418.400000
6195 14816 9921 1 109.50000 418.400000
7176 14816 8302 1 109.50000 418.400000
7176 14816 9921 1 109.50000 418.400000
8302 14816 9921 1 109.50000 418.400000
3498 14817 4671 1 109.50000 418.400000
3498 14817 5430 1 109.50000 418.400000
3498 14817 9922 1 109.50000 418.400000
4671 14817 5430 1 109.50000 418.400000
4671 14817 9922 1 109.50000 418.400000
5430 14817 9922 1 109.50000 418.400000
7077 14818 8896 1 109.50000 418.400000
7077 14818 9924 1 109.50000 418.400000
7077 14818 9925 1 109.50000 418.400000
8896 14818 9924 1 109.50000 418.400000
8896 14818 9925 1 109.50000 418.400000
9924 14818 9925 1 109.50000 418.400000
499 14819 9359 1 109.50000 418.400000
499 14819 9360 1 109.50000 418.400000
499 14819 9926 1 109.50000 418.400000
9359 14819 9360 1 109.50000 418.400000
9359 14819 9926 1 109.50000 418.400000
9360 14819 9926 1 109.50000 418.400000
8828 14820 9858 1 109.50000 418.400000
8828 14820 9927 1 109.50000 418.400000
8828 14820 11200 1 109.50000 418.400000
9858 14820 9927 1 109.50000 418.400000
9858 14820 11200 1 109.50000 418.400000
9927 14820 11200 1 109.50000 418.400000
1934 14821 3437 1 109.50000 418.400000
1934 14821 9809 1 109.50000 418.400000
1934 14821 9928 1 109.50000 418.400000
3437 14821 9809 1 109.50000 418.400000
3437 14821 9928 1 109.50000 418.400000
9809 14821 9928 1 109.50000 418.400000
2416 14822 8035 1 109.50000 418.400000
2416 14822 9759 1 109.50000 418.400000
2416 14822 9760 1 109.50000 418.400000
8035 14822 9759 1 109.50000 418.400000
8035 14822 9760 1 109.50000 418.400000
9759 14822 9760 1 109.50000 418.400000
463 14823 6477 1 109.50000 418.400000
463 14823 9142 1 109.50000 418.400000
463 14823 9929 1 109.50000 418.400000
6477 14823 9142 1 109.50000 418.400000
6477 14823 9929 1 109.50000 418.400000
9142 14823 9929 1 109.50000 418.400000
7530 14824 7795 1 109.50000 418.400000
7530 14824 9931 1 109.50000 418.400000
7530 14824 9932 1 109.50000 418.400000
7795 14824 9931 1 109.50000 418.400000
7795 14824 9932 1 109.50000 418.400000
9931 14824 9932 1 109.50000 418.400000
2902 14825 9239 1 109.50000 418.400000
2902 14825 9902 1 109.50000 418.400000
2902 14825 9934 1 109.50000 418.400000
9239 14825 9902 1 109.50000 418.400000
9239 14825 9934 1 109.50000 418.400000
9902 14825 9934 1 109.50000 418.400000
500 14826 3484 1 109.50000 418.400000
500 14826 9082 1 109.50000 418.400000
500 14826 9935 1 109.50000 418.400000
3484 14826 9082 1 109.50000 418.400000
3484 14826 9935 1 109.50000 418.400000
9082 14826 9935 1 109.50000 418.400000
3704 14827 5302 1 109.50000 418.400000
3704 14827 9936 1 109.50000 418.400000
3704 14827 9937 1 109.50000 418.400000
5302 14827 9936 1 109.50000 418.400000
5302 14827 9937 1 109.50000 418.400000
9936 14827 9937 1 109.50000 418.400000
4983 14828 8447 1 109.50000 418.400000
4983 14828 8487 1 109.50000 418.400000
4983 14828 9938 1 109.50000 418.400000
8447 14828 8487 1 109.50000 418.400000
8447 14828 9938 1 109.50000 418.400000
8487 14828 9938 1 109.50000 418.400000
2814 14829 8696 1 109.50000 418.400000
2814 14829 8897 1 109.50000 418.400000
2814 14829 9939 1 109.50000 418.400000
8696 14829 8897 1 109.50000 418.400000
8696 14829 9939 1 109.50000 418.400000
8897 14829 9939 1 109.50000 418.400000
3613 14830 9707 1 109.50000 418.400000
3613 14830 9941 1 109.50000 418.400000
3613 14830 9942 1 109.50000 418.400000
9707 14830 9941 1 109.50000 418.400000
9707 14830 9942 1 109.50000 418.400000
9941 14830 9942 1 109.50000 418.400000
2037 14831 2370 1 109.50000 418.400000
2037 14831 2393 1 109.50000 418.400000
2037 14831 7413 1 109.50000 418.400000
2370 14831 2393 1 109.50000 418.400000
2370 14831 7413 1 109.50000 418.400000
2393 14831 7413 1 109.50000 418.400000
1690 14832 4230 1 109.50000 418.400000
1690 14832 5194 1 109.50000 418.400000
1690 14832 9943 1 109.50000 418.400000
4230 14832 5194 1 109.50000 418.400000
4230 14832 9943 1 109.50000 418.400000
5194 14832 9943 1 109.50000 418.400000
3407 14833 7315 1 109.50000 418.400000
3407 14833 8080 1 109.50000 418.400000
3407 14833 9944 1 109.50000 418.400000
7315 14833 8080 1 109.50000 418.400000
7315 14833 9944 1 109.50000 418.400000
8080 14833 9944 1 109.50000 418.400000
5453 14834 5693 1 109.50000 418.400000
5453 14834 9945 1 109.50000 418.400000
5453 14834 9946 1 109.50000 418.400000
5693 14834 9945 1 109.50000 418.400000
5693 14834 9946 1 109.50000 418.400000
9945 14834 9946 1 109.50000 418.400000
6968 14835 6969 1 109.50000 418.400000
6968 14835 9947 1 109.50000 418.400000
6968 14835 9948 1 109.50000 418.400000
6969 14835 9947 1 109.50000 418.400000
6969 14835 9948 1 109.50000 418.400000
9947 14835 9948 1 109.50000 418.400000
9951 14836 9952 1 109.50000 418.400000
9951 14836 9953 1 109.50000 418.400000
9951 14836 9954 1 109.50000 418.400000
9952 14836 9953 1 109.50000 418.400000
9952 14836 9954 1 109.50000 418.400000
9953 14836 9954 1 109.50000 418.400000
897 14837 1855 1 109.50000 418.400000
897 14837 4030 1 109.50000 418.400000
897 14837 9051 1 109.50000 418.400000
1855 14837 4030 1 109.50000 418.400000
1855 14837 9051 1 109.50000 418.400000
4030 14837 9051 1 109.50000 418.400000
1006 14838 1493 1 109.50000 418.400000
1006 14838 4842 1 109.50000 418.400000
1006 14838 6137 1 109.50000 418.400000
1493 14838 4842 1 109.50000 418.400000
1493 14838 6137 1 109.50000 418.400000
4842 14838 6137 1 109.50000 418.400000
3760 14839 8515 1 109.50000 418.400000
3760 14839 9842 1 109.50000 418.400000
3760 14839 9956 1 109.50000 418.400000
8515 14839 9842 1 109.50000 418.400000
8515 14839 9956 1 109.50000 418.400000
9842 14839 9956 1 109.50000 418.400000
4163 14840 8342 1 109.50000 418.400000
4163 14840 9147 1 109.50000 418.400000
4163 14840 9957 1 109.50000 418.400000
8342 14840 9147 1 109.50000 418.400000
8342 14840 9957 1 109.50000 418.400000
9147 14840 9957 1 109.50000 418.400000
477 14841 1105 1 109.50000 418.400000
477 14841 9320 1 109.50000 418.400000
477 14841 9958 1 109.50000 418.400000
1105 14841 9320 1 109.50000 418.400000
1105 14841 9958 1 109.50000 418.400000
9320 14841 9958 1 109.50000 418.400000
4799 14842 5653 1 109.50000 418.400000
4799 14842 9959 1 109.50000 418.400000
4799 14842 9960 1 109.50000 418.400000
5653 14842 9959 1 109.50000 418.400000
5653 14842 9960 1 109.50000 418.400000
9959 14842 9960 1 109.50000 418.400000
748 14843 7086 1 109.50000 418.400000
748 14843 8798 1 109.50000 418.400000
748 14843 9961 1 109.50000 418.400000
7086 14843 8798 1 109.50000 418.400000
7086 14843 9961 1 109.50000 418.400000
8798 14843 9961 1 109.50000 418.400000
9423 14844 9962 1 109.50000 418.400000
9423 14844 9963 1 109.50000 418.400000
9423 14844 11173 1 109.50000 418.400000
9962 14844 9963 1 109.50000 418.400000
9962 14844 11173 1 109.50000 418.400000
9963 14844 11173 1 109.50000 418.400000
4148 14845 4840 1 109.50000 418.400000
4148 14845 9601 1 109.50000 418.400000
4148 14845 9964 1 109.50000 418.400000
4840 14845 9601 1 109.50000 418.400000
4840 14845 9964 1 109.50000 418.400000
9601 14845 9964 1 109.50000 418.400000
3745 14846 6210 1 109.50000 418.400000
3745 14846 9671 1 109.50000 418.400000
3745 14846 9967 1 109.50000 418.400000
6210 14846 9671 1 109.50000 418.400000
6210 14846 9967 1 109.50000 418.400000
9671 14846 9967 1 109.50000 418.400000
2658 14847 7995 1 109.50000 418.400000
2658 14847 9968 1 109.50000 418.400000
2658 14847 9969 1 109.50000 418.400000
7995 14847 9968 1 109.50000 418.400000
7995 14847 9969 1 109.50000 418.400000
9968 14847 9969 1 109.50000 418.400000
6483 14848 7553 1 109.50000 418.400000
6483 14848 8485 1 109.50000 418.400000
6483 14848 9970 1 109.50000 418.400000
7553 14848 8485 1 109.50000 418.400000
7553 14848 9970 1 109.50000 418.400000
8485 14848 9970 1 109.50000 418.400000
4303 14849 8384 1 109.50000 418.400000
4303 14849 8523 1 109.50000 418.400000
4303 14849 8866 1 109.50000 418.400000
8384 14849 8523 1 109.50000 418.400000
8384 14849 8866 1 109.50000 418.400000
8523 14849 8866 1 109.50000 418.400000
8153 14850 8876 1 109.50000 418.400000
8153 14850 9971 1 109.50000 418.400000
8153 14850 9972 1 109.50000 418.400000
8876 14850 9971 1 109.50000 418.400000
8876 14850 9972 1 109.50000 418.400000
9971 14850 9972 1 109.50000 418.400000
3040 14851 4377 1 109.50000 418.400000
3040 14851 9321 1 109.50000 418.400000
3040 14851 9973 1 109.50000 418.400000
4377 14851 9321 1 109.50000 418.400000
4377 14851 9973 1 109.50000 418.400000
9321 14851 9973 1 109.50000 418.400000
4618 14852 7921 1 109.50000 418.400000
4618 14852 9974 1 109.50000 418.400000
4618 14852 9975 1 109.50000 418.400000
7921 14852 9974 1 109.50000 418.400000
7921 14852 9975 1 109.50000 418.400000
9974 14852 9975 1 109.50000 418.400000
981 14853 982 1 109.50000 418.400000
981 14853 5667 1 109.50000 418.400000
981 14853 9976 1 109.50000 418.400000
982 14853 5667 1 109.50000 418.400000
982 14853 9976 1 109.50000 418.400000
5667 14853 9976 1 109.50000 418.400000
1286 14854 1287 1 109.50000 418.400000
1286 14854 6403 1 109.50000 418.400000
1286 14854 9977 1 109.50000 418.400000
1287 14854 6403 1 109.50000 418.400000
1287 14854 9977 1 109.50000 418.400000
6403 14854 9977 1 109.50000 418.400000
619 14855 4871 1 109.50000 418.400000
619 14855 8980 1 109.50000 418.400000
619 14855 11228 1 109.50000 418.400000
4871 14855 8980 1 109.50000 418.400000
4871 14855 11228 1 109.50000 418.400000
8980 14855 11228 1 109.50000 418.400000
4890 14856 9075 1 109.50000 418.400000
4890 14856 9979 1 109.50000 418.400000
4890 14856 9980 1 109.50000 418.400000
9075 14856 9979 1 109.50000 418.400000
9075 14856 9980 1 109.50000 418.400000
9979 14856 9980 1 109.50000 418.400000
1 14857 2440 1 109.50000 418.400000
1 14857 4345 1 109.50000 418.400000
1 14857 6630 1 109.50000 418.400000
2440 14857 4345 1 109.50000 418.400000
2440 14857 6630 1 109.50000 418.400000
4345 14857 6630 1 109.50000 418.400000
3178 14858 7101 1 109.50000 418.400000
3178 14858 8622 1 109.50000 418.400000
3178 14858 9982 1 109.50000 418.400000
7101 14858 8622 1 109.50000 418.400000
7101 14858 9982 1 109.50000 418.400000
8622 14858 9982 1 109.50000 418.400000
1173 14859 7395 1 109.50000 418.400000
1173 14859 9721 1 109.50000 418.400000
1173 14859 9983 1 109.50000 418.400000
7395 14859 9721 1 109.50000 418.400000
7395 14859 9983 1 109.50000 418.400000
9721 14859 9983 1 109.50000 418.400000
2287 14860 3514 1 109.50000 418.400000
2287 14860 9984 1 109.50000 418.400000
2287 14860 9985 1 109.50000 418.400000
3514 14860 9984 1 109.50000 418.400000
3514 14860 9985 1 109.50000 418.400000
9984 14860 9985 1 109.50000 418.400000
2274 14861 5032 1 109.50000 418.400000
2274 14861 9784 1 109.50000 418.400000
2274 14861 9986 1 109.50000 418.400000
5032 14861 9784 1 109.50000 418.400000
5032 14861 9986 1 109.50000 418.400000
9784 14861 9986 1 109.50000 418.400000
2502 14862 3473 1 109.50000 418.400000
2502 14862 6102 1 109.50000 418.400000
2502 14862 9447 1 109.50000 418.400000
3473 14862 6102 1 109.50000 418.400000
3473 14862 9447 1 109.50000 418.400000
6102 14862 9447 1 109.50000 418.400000
1787 14863 6409 1 109.50000 418.400000
1787 14863 9357 1 109.50000 418.400000
1787 14863 9987 1 109.50000 418.400000
6409 14863 9357 1 109.50000 418.400000
6409 14863 9987 1 109.50000 418.400000
9357 14863 9987 1 109.50000 418.400000
1976 14864 6840 1 109.50000 418.400000
1976 14864 9988 1 109.50000 418.400000
1976 14864 9989 1 109.50000 418.400000
6840 14864 9988 1 109.50000 418.400000
6840 14864 9989 1 109.50000 418.400000
9988 14864 9989 1 109.50000 418.400000
8178 14865 8246 1 109.50000 418.400000
8178 14865 9991 1 109.50000 418.400000
8178 14865 9992 1 109.50000 418.400000
8246 14865 9991 1 109.50000 418.400000
8246 14865 9992 1 109.50000 418.400000
9991 14865 9992 1 109.50000 418.400000
1796 14866 3472 1 109.50000 418.400000
1796 14866 9445 1 109.50000 418.400000
1796 14866 9996 1 109.50000 418.400000
3472 14866 9445 1 109.50000 418.400000
3472 14866 9996 1 109.50000 418.400000
9445 14866 9996 1 109.50000 418.400000
1912 14867 2566 1 109.50000 418.400000
1912 14867 5779 1 109.50000 418.400000
1912 14867 8837 1 109.50000 418.400000
2566 14867 5779 1 109.50000 418.400000
2566 14867 8837 1 109.50000 418.400000
5779 14867 8837 1 109.50000 418.400000
1535 14868 5451 1 109.50000 418.400000
1535 14868 8243 1 109.50000 418.400000
1535 14868 9816 1 109.50000 418.400000
5451 14868 8243 1 109.50000 418.400000
5451 14868 9816 1 109.50000 418.400000
8243 14868 9816 1 109.50000 418.400000
6179 14869 8637 1 109.50000 418.400000
6179 14869 9997 1 109.50000 418.400000
6179 14869 9998 1 109.50000 418.400000
8637 14869 9997 1 109.50000 418.400000
8637 14869 9998 1 109.50000 418.400000
9997 14869 9998 1 109.50000 418.400000
9468 14870 9999 1 109.50000 418.400000
9468 14870 10000 1 109.50000 418.400000
9468 14870 10001 1 109.50000 418.400000
9999 14870 10000 1 109.50000 418.400000
9999 14870 10001 1 109.50000 418.400000
10000 14870 10001 1 109.50000 418.400000
2325 14871 8024 1 109.50000 418.400000
2325 14871 8489 1 109.50000 418.400000
2325 14871 9481 1 109.50000 418.400000
8024 14871 8489 1 109.50000 418.400000
8024 14871 9481 1 109.50000 418.400000
8489 14871 9481 1 109.50000 418.400000
8190 14872 10002 1 109.50000 418.400000
8190 14872 10003 1 109.50000 418.400000
8190 14872 10004 1 109.50000 418.400000
10002 14872 10003 1 109.50000 418.400000
10002 14872 10004 1 109.50000 418.400000
10003 14872 10004 1 109.50000 418.400000
4615 14873 5718 1 109.50000 418.400000
4615 14873 10005 1 109.50000 418.400000
4615 14873 10006 1 109.50000 418.400000
5718 14873 10005 1 109.50000 418.400000
5718 14873 10006 1 109.50000 418.400000
10005 14873 10006 1 109.50000 418.400000
6819 14874 8169 1 109.50000 418.400000
6819 14874 9694 1 109.50000 418.400000
6819 14874 10007 1 109.50000 418.400000
8169 14874 9694 1 109.50000 418.400000
8169 14874 10007 1 109.50000 418.400000
9694 14874 10007 1 109.50000 418.400000
4287 14875 5900 1 109.50000 418.400000
4287 14875 6052 1 109.50000 418.400000
4287 14875 10008 1 109.50000 418.400000
5900 14875 6052 1 109.50000 418.400000
5900 14875 10008 1 109.50000 418.400000
6052 14875 10008 1 109.50000 418.400000
8852 14876 9856 1 109.50000 418.400000
8852 14876 9935 1 109.50000 418.400000
8852 14876 10009 1 109.50000 418.400000
9856 14876 9935 1 109.50000 418.400000
9856 14876 10009 1 109.50000 418.400000
9935 14876 10009 1 109.50000 418.400000
8146 14877 8918 1 109.50000 418.400000
8146 14877 10010 1 109.50000 418.400000
8146 14877 10011 1 109.50000 418.400000
8918 14877 10010 1 109.50000 418.400000
8918 14877 10011 1 109.50000 418.400000
10010 14877 10011 1 109.50000 418.400000
6602 14878 6878 1 109.50000 418.400000
6602 14878 8180 1 109.50000 418.400000
6602 14878 9805 1 109.50000 418.400000
6878 14878 8180 1 109.50000 418.400000
6878 14878 9805 1 109.50000 418.400000
8180 14878 9805 1 109.50000 418.400000
3123 14879 5452 1 109.50000 418.400000
3123 14879 10013 1 109.50000 418.400000
3123 14879 10014 1 109.50000 418.400000
5452 14879 10013 1 109.50000 418.400000
5452 14879 10014 1 109.50000 418.400000
10013 14879 10014 1 109.50000 418.400000
3296 14880 6626 1 109.50000 418.400000
3296 14880 7971 1 109.50000 418.400000
3296 14880 10015 1 109.50000 418.400000
6626 14880 7971 1 109.50000 418.400000
6626 14880 10015 1 109.50000 418.400000
7971 14880 10015 1 109.50000 418.400000
7167 14881 7738 1 109.50000 418.400000
7167 14881 10016 1 109.50000 418.400000
7167 14881 10017 1 109.50000 418.400000
7738 14881 10016 1 109.50000 418.400000
7738 14881 10017 1 109.50000 418.400000
10016 14881 10017 1 109.50000 418.400000
5741 14882 10018 1 109.50000 418.400000
5741 14882 10019 1 109.50000 418.400000
5741 14882 10020 1 109.50000 418.400000
10018 14882 10019 1 109.50000 418.400000
10018 14882 10020 1 109.50000 418.400000
10019 14882 10020 1 109.50000 418.400000
6401 14883 6585 1 109.50000 418.400000
6401 14883 10022 1 109.50000 418.400000
6401 14883 10023 1 109.50000 418.400000
6585 14883 10022 1 109.50000 418.400000
6585 14883 10023 1 109.50000 418.400000
10022 14883 10023 1 109.50000 418.400000
615 14884 6279 1 109.50000 418.400000
615 14884 8788 1 109.50000 418.400000
615 14884 10025 1 109.50000 418.400000
6279 14884 8788 1 109.50000 418.400000
6279 14884 10025 1 109.50000 418.400000
8788 14884 10025 1 109.50000 418.400000
1893 14885 2039 1 109.50000 418.400000
1893 14885 3214 1 109.50000 418.400000
1893 14885 10026 1 109.50000 418.400000
2039 14885 3214 1 109.50000 418.400000
2039 14885 10026 1 109.50000 418.400000
3214 14885 10026 1 109.50000 418.400000
5808 14886 7578 1 109.50000 418.400000
5808 14886 10027 1 109.50000 418.400000
5808 14886 10028 1 109.50000 418.400000
7578 14886 10027 1 109.50000 418.400000
7578 14886 10028 1 109.50000 418.400000
10027 14886 10028 1 109.50000 418.400000
2386 14887 4401 1 109.50000 418.400000
2386 14887 5228 1 109.50000 418.400000
2386 14887 5996 1 109.50000 418.400000
4401 14887 5228 1 109.50000 418.400000
4401 14887 5996 1 109.50000 418.400000
5228 14887 5996 1 109.50000 418.400000
8143 14888 8873 1 109.50000 418.400000
8143 14888 9415 1 109.50000 418.400000
8143 14888 10029 1 109.50000 418.400000
8873 14888 9415 1 109.50000 418.400000
8873 14888 10029 1 109.50000 418.400000
9415 14888 10029 1 109.50000 418.400000
2201 14889 7109 1 109.50000 418.400000
2201 14889 9822 1 109.50000 418.400000
2201 14889 9963 1 109.50000 418.400000
7109 14889 9822 1 109.50000 418.400000
7109 14889 9963 1 109.50000 418.400000
9822 14889 9963 1 109.50000 418.400000
6746 14890 7114 1 109.50000 418.400000
6746 14890 10030 1 109.50000 418.400000
6746 14890 11144 1 109.50000 418.400000
7114 14890 10030 1 109.50000 418.400000
7114 14890 11144 1 109.50000 418.400000
10030 14890 11144 1 109.50000 418.400000
6948 14891 6949 1 109.50000 418.400000
6948 14891 6950 1 109.50000 418.400000
6948 14891 10031 1 109.50000 418.400000
6949 14891 6950 1 109.50000 418.400000
6949 14891 10031 1 109.50000 418.400000
6950 14891 10031 1 109.50000 418.400000
69 14892 2698 1 109.50000 418.400000
69 14892 2913 1 109.50000 418.400000
69 14892 10033 1 109.50000 418.400000
2698 14892 2913 1 109.50000 418.400000
2698 14892 10033 1 109.50000 418.400000
2913 14892 10033 1 109.50000 418.400000
3204 14893 3278 1 109.50000 418.400000
3204 14893 4174 1 109.50000 418.400000
3204 14893 5240 1 109.50000 418.400000
3278 14893 4174 1 109.50000 418.400000
3278 14893 5240 1 109.50000 418.400000
4174 14893 5240 1 109.50000 418.400000
6415 14894 7232 1 109.50000 418.400000
6415 14894 8657 1 109.50000 418.400000
6415 14894 11203 1 109.50000 418.400000
7232 14894 8657 1 109.50000 418.400000
7232 14894 11203 1 109.50000 418.400000
8657 14894 11203 1 109.50000 418.400000
2998 14895 4855 1 109.50000 418.400000
2998 14895 7012 1 109.50000 418.400000
2998 14895 8909 1 109.50000 418.400000
4855 14895 7012 1 109.50000 418.400000
4855 14895 8909 1 109.50000 418.400000
7012 14895 8909 1 109.50000 418.400000
3975 14896 5425 1 109.50000 418.400000
3975 14896 10037 1 109.50000 418.400000
3975 14896 10038 1 109.50000 418.400000
5425 14896 10037 1 109.50000 418.400000
5425 14896 10038 1 109.50000 418.400000
10037 14896 10038 1 109.50000 418.400000
2720 14897 4867 1 109.50000 418.400000
2720 14897 5347 1 109.50000 418.400000
2720 14897 10039 1 109.50000 418.400000
4867 14897 5347 1 109.50000 418.400000
4867 14897 10039 1 109.50000 418.400000
5347 14897 10039 1 109.50000 418.400000
4284 14898 4285 1 109.50000 418.400000
4284 14898 4946 1 109.50000 418.400000
4284 14898 10040 1 109.50000 418.400000
4285 14898 4946 1 109.50000 418.400000
4285 14898 10040 1 109.50000 418.400000
4946 14898 10040 1 109.50000 418.400000
1283 14899 8195 1 109.50000 418.400000
1283 14899 9115 1 109.50000 418.400000
1283 14899 10041 1 109.50000 418.400000
8195 14899 9115 1 109.50000 418.400000
8195 14899 10041 1 109.50000 418.400000
9115 14899 10041 1 109.50000 418.400000
1865 14900 6926 1 109.50000 418.400000
1865 14900 10042 1 109.50000 418.400000
1865 14900 10043 1 109.50000 418.400000
6926 14900 10042 1 109.50000 418.400000
6926 14900 10043 1 109.50000 418.400000
10042 14900 10043 1 109.50000 418.400000
4301 14901 6319 1 109.50000 418.400000
4301 14901 6690 1 109.50000 418.400000
4301 14901 8004 1 109.50000 418.400000
6319 14901 6690 1 109.50000 418.400000
6319 14901 8004 1 109.50000 418.400000
6690 14901 8004 1 109.50000 418.400000
3019 14902 7810 1 109.50000 418.400000
3019 14902 10044 1 109.50000 418.400000
3019 14902 10045 1 109.50000 418.400000
7810 14902 10044 1 109.50000 418.400000
7810 14902 10045 1 109.50000 418.400000
10044 14902 10045 1 109.50000 418.400000
9029 14903 10046 1 109.50000 418.400000
9029 14903 10047 1 109.50000 418.400000
9029 14903 11229 1 109.50000 418.400000
10046 14903 10047 1 109.50000 418.400000
10046 14903 11229 1 109.50000 418.400000
10047 14903 11229 1 109.50000 418.400000
3939 14904 5894 1 109.50000 418.400000
3939 14904 9430 1 109.50000 418.400000
3939 14904 10048 1 109.50000 418.400000
5894 14904 9430 1 109.50000 418.400000
5894 14904 10048 1 109.50000 418.400000
9430 14904 10048 1 109.50000 418.400000
3385 14905 4053 1 109.50000 418.400000
3385 14905 10049 1 109.50000 418.400000
3385 14905 10050 1 109.50000 418.400000
4053 14905 10049 1 109.50000 418.400000
4053 14905 10050 1 109.50000 418.400000
10049 14905 10050 1 109.50000 418.400000
7546 14906 9792 1 109.50000 418.400000
7546 14906 10051 1 109.50000 418.400000
7546 14906 11334 1 109.50000 418.400000
9792 14906 10051 1 109.50000 418.400000
9792 14906 11334 1 109.50000 418.400000
10051 14906 11334 1 109.50000 418.400000
2337 14907 4276 1 109.50000 418.400000
2337 14907 6112 1 109.50000 418.400000
2337 14907 6113 1 109.50000 418.400000
4276 14907 6112 1 109.50000 418.400000
4276 14907 6113 1 109.50000 418.400000
6112 14907 6113 1 109.50000 418.400000
5849 14908 8494 1 109.50000 418.400000
5849 14908 10053 1 109.50000 418.400000
5849 14908 11322 1 109.50000 418.400000
8494 14908 10053 1 109.50000 418.400000
8494 14908 11322 1 109.50000 418.400000
10053 14908 11322 1 109.50000 418.400000
4263 14909 6565 1 109.50000 418.400000
4263 14909 6672 1 109.50000 418.400000
4263 14909 10054 1 109.50000 418.400000
6565 14909 6672 1 109.50000 418.400000
6565 14909 10054 1 109.50000 418.400000
6672 14909 10054 1 109.50000 418.400000
3170 14910 6055 1 109.50000 418.400000
3170 14910 6881 1 109.50000 418.400000
3170 14910 8802 1 109.50000 418.400000
6055 14910 6881 1 109.50000 418.400000
6055 14910 8802 1 109.50000 418.400000
6881 14910 8802 1 109.50000 418.400000
1504 14911 1638 1 109.50000 418.400000
1504 14911 8437 1 109.50000 418.400000
1504 14911 10056 1 109.50000 418.400000
1638 14911 8437 1 109.50000 418.400000
1638 14911 10056 1 109.50000 418.400000
8437 14911 10056 1 109.50000 418.400000
4020 14912 4409 1 109.50000 418.400000
4020 14912 10057 1 109.50000 418.400000
4020 14912 10058 1 109.50000 418.400000
4409 14912 10057 1 109.50000 418.400000
4409 14912 10058 1 109.50000 418.400000
10057 14912 10058 1 109.50000 418.400000
1010 14913 1011 1 109.50000 418.400000
1010 14913 1676 1 109.50000 418.400000
1010 14913 2796 1 109.50000 418.400000
1011 14913 1676 1 109.50000 418.400000
1011 14913 2796 1 109.50000 418.400000
1676 14913 2796 1 109.50000 418.400000
8782 14914 10059 1 109.50000 418.400000
8782 14914 10060 1 109.50000 418.400000
8782 14914 10061 1 109.50000 418.400000
10059 14914 10060 1 109.50000 418.400000
10059 14914 10061 1 109.50000 418.400000
10060 14914 10061 1 109.50000 418.400000
5179 14915 7237 1 109.50000 418.400000
5179 14915 9717 1 109.50000 418.400000
5179 14915 10672 1 109.50000 418.400000
7237 14915 9717 1 109.50000 418.400000
7237 14915 10672 1 109.50000 418.400000
9717 14915 10672 1 109.50000 418.400000
1536 14916 5811 1 109.50000 418.400000
1536 14916 8144 1 109.50000 418.400000
1536 14916 10064 1 109.50000 418.400000
5811 14916 8144 1 109.50000 418.400000
5811 14916 10064 1 109.50000 418.400000
8144 14916 10064 1 109.50000 418.400000
2301 14917 4835 1 109.50000 418.400000
2301 14917 9152 1 109.50000 418.400000
2301 14917 9942 1 109.50000 418.400000
4835 14917 9152 1 109.50000 418.400000
4835 14917 9942 1 109.50000 418.400000
9152 14917 9942 1 109.50000 418.400000
1508 14918 7149 1 109.50000 418.400000
1508 14918 10065 1 109.50000 418.400000
1508 14918 10066 1 109.50000 418.400000
7149 14918 10065 1 109.50000 418.400000
7149 14918 10066 1 109.50000 418.400000
10065 14918 10066 1 109.50000 418.400000
474 14919 6309 1 109.50000 418.400000
474 14919 7446 1 109.50000 418.400000
474 14919 10067 1 109.50000 418.400000
6309 14919 7446 1 109.50000 418.400000
6309 14919 10067 1 109.50000 418.400000
7446 14919 10067 1 109.50000 418.400000
3598 14920 8396 1 109.50000 418.400000
3598 14920 9398 1 109.50000 418.400000
3598 14920 9836 1 109.50000 418.400000
8396 14920 9398 1 109.50000 418.400000
8396 14920 9836 1 109.50000 418.400000
9398 14920 9836 1 109.50000 418.400000
1595 14921 2249 1 109.50000 418.400000
1595 14921 2471 1 109.50000 418.400000
1595 14921 8813 1 109.50000 418.400000
2249 14921 2471 1 109.50000 418.400000
2249 14921 8813 1 109.50000 418.400000
2471 14921 8813 1 109.50000 418.400000
2073 14922 3853 1 109.50000 418.400000
2073 14922 4594 1 109.50000 418.400000
2073 14922 6870 1 109.50000 418.400000
3853 14922 4594 1 109.50000 418.400000
3853 14922 6870 1 109.50000 418.400000
4594 14922 6870 1 109.50000 418.400000
7120 14923 7986 1 109.50000 418.400000
7120 14923 9956 1 109.50000 418.400000
7120 14923 10070 1 109.50000 418.400000
7986 14923 9956 1 109.50000 418.400000
7986 14923 10070 1 109.50000 418.400000
9956 14923 10070 1 109.50000 418.400000
4522 14924 4643 1 109.50000 418.400000
4522 14924 6362 1 109.50000 418.400000
4522 14924 10071 1 109.50000 418.400000
4643 14924 6362 1 109.50000 418.400000
4643 14924 10071 1 109.50000 418.400000
6362 14924 10071 1 109.50000 418.400000
4241 14925 9371 1 109.50000 418.400000
4241 14925 10072 1 109.50000 418.400000
4241 14925 10073 1 109.50000 418.400000
9371 14925 10072 1 109.50000 418.400000
9371 14925 10073 1 109.50000 418.400000
10072 14925 10073 1 109.50000 418.400000
1788 14926 5761 1 109.50000 418.400000
1788 14926 5764 1 109.50000 418.400000
1788 14926 10074 1 109.50000 418.400000
5761 14926 5764 1 109.50000 418.400000
5761 14926 10074 1 109.50000 418.400000
5764 14926 10074 1 109.50000 418.400000
1461 14927 5164 1 109.50000 418.400000
1461 14927 8299 1 109.50000 418.400000
1461 14927 10076 1 109.50000 418.400000
5164 14927 8299 1 109.50000 418.400000
5164 14927 10076 1 109.50000 418.400000
8299 14927 10076 1 109.50000 418.400000
1156 14928 10077 1 109.50000 418.400000
1156 14928 10078 1 109.50000 418.400000
1156 14928 10079 1 109.50000 418.400000
10077 14928 10078 1 109.50000 418.400000
10077 14928 10079 1 109.50000 418.400000
10078 14928 10079 1 109.50000 418.400000
5852 14929 8814 1 109.50000 418.400000
5852 14929 9591 1 109.50000 418.400000
5852 14929 9725 1 109.50000 418.400000
8814 14929 9591 1 109.50000 418.400000
8814 14929 9725 1 109.50000 418.400000
9591 14929 9725 1 109.50000 418.400000
8978 14930 9264 1 109.50000 418.400000
8978 14930 9449 1 109.50000 418.400000
8978 14930 9843 1 109.50000 418.400000
9264 14930 9449 1 109.50000 418.400000
9264 14930 9843 1 109.50000 418.400000
9449 14930 9843 1 109.50000 418.400000
5044 14931 6514 1 109.50000 418.400000
5044 14931 7184 1 109.50000 418.400000
5044 14931 9374 1 109.50000 418.400000
6514 14931 7184 1 109.50000 418.400000
6514 14931 9374 1 109.50000 418.400000
7184 14931 9374 1 109.50000 418.400000
1935 14932 6624 1 109.50000 418.400000
1935 14932 6850 1 109.50000 418.400000
1935 14932 9641 1 109.50000 418.400000
6624 14932 6850 1 109.50000 418.400000
6624 14932 9641 1 109.50000 418.400000
6850 14932 9641 1 109.50000 418.400000
4886 14933 7515 1 109.50000 418.400000
4886 14933 9631 1 109.50000 418.400000
4886 14933 10087 1 109.50000 418.400000
7515 14933 9631 1 109.50000 418.400000
7515 14933 10087 1 109.50000 418.400000
9631 14933 10087 1 109.50000 418.400000
5017 14934 5489 1 109.50000 418.400000
5017 14934 9255 1 109.50000 418.400000
5017 14934 10088 1 109.50000 418.400000
5489 14934 9255 1 109.50000 418.400000
5489 14934 10088 1 109.50000 418.400000
9255 14934 10088 1 109.50000 418.400000
2151 14935 6376 1 109.50000 418.400000
2151 14935 7672 1 109.50000 418.400000
2151 14935 10089 1 109.50000 418.400000
6376 14935 7672 1 109.50000 418.400000
6376 14935 10089 1 109.50000 418.400000
7672 14935 10089 1 109.50000 418.400000
5294 14936 8251 1 109.50000 418.400000
5294 14936 9884 1 109.50000 418.400000
5294 14936 10090 1 109.50000 418.400000
8251 14936 9884 1 109.50000 418.400000
8251 14936 10090 1 109.50000 418.400000
9884 14936 10090 1 109.50000 418.400000
2898 14937 7769 1 109.50000 418.400000
2898 14937 9464 1 109.50000 418.400000
2898 14937 9674 1 109.50000 418.400000
7769 14937 9464 1 109.50000 418.400000
7769 14937 9674 1 109.50000 418.400000
9464 14937 9674 1 109.50000 418.400000
7781 14938 9496 1 109.50000 418.400000
7781 14938 10091 1 109.50000 418.400000
7781 14938 10092 1 109.50000 418.400000
9496 14938 10091 1 109.50000 418.400000
9496 14938 10092 1 109.50000 418.400000
10091 14938 10092 1 109.50000 418.400000
9355 14939 9874 1 109.50000 418.400000
9355 14939 10093 1 109.50000 418.400000
9355 14939 10094 1 109.50000 418.400000
9874 14939 10093 1 109.50000 418.400000
9874 14939 10094 1 109.50000 418.400000
10093 14939 10094 1 109.50000 418.400000
5274 14940 8241 1 109.50000 418.400000
5274 14940 10095 1 109.50000 418.400000
5274 14940 10096 1 109.50000 418.400000
8241 14940 10095 1 109.50000 418.400000
8241 14940 10096 1 109.50000 418.400000
10095 14940 10096 1 109.50000 418.400000
4331 14941 8194 1 109.50000 418.400000
4331 14941 9864 1 109.50000 418.400000
4331 14941 10097 1 109.50000 418.400000
8194 14941 9864 1 109.50000 418.400000
8194 14941 10097 1 109.50000 418.400000
9864 14941 10097 1 109.50000 418.400000
2555 14942 4693 1 109.50000 418.400000
2555 14942 9229 1 109.50000 418.400000
2555 14942 9563 1 109.50000 418.400000
4693 14942 9229 1 109.50000 418.400000
4693 14942 9563 1 109.50000 418.400000
9229 14942 9563 1 109.50000 418.400000
5087 14943 7556 1 109.50000 418.400000
5087 14943 8177 1 109.50000 418.400000
5087 14943 8937 1 109.50000 418.400000
7556 14943 8177 1 109.50000 418.400000
7556 14943 8937 1 109.50000 418.400000
8177 14943 8937 1 109.50000 418.400000
4506 14944 6256 1 109.50000 418.400000
4506 14944 8279 1 109.50000 418.400000
4506 14944 8339 1 109.50000 418.400000
6256 14944 8279 1 109.50000 418.400000
6256 14944 8339 1 109.50000 418.400000
8279 14944 8339 1 109.50000 418.400000
8076 14945 8637 1 109.50000 418.400000
8076 14945 8638 1 109.50000 418.400000
8076 14945 8639 1 109.50000 418.400000
8637 14945 8638 1 109.50000 418.400000
8637 14945 8639 1 109.50000 418.400000
8638 14945 8639 1 109.50000 418.400000
3615 14946 10098 1 109.50000 418.400000
3615 14946 10099 1 109.50000 418.400000
3615 14946 10100 1 109.50000 418.400000
10098 14946 10099 1 109.50000 418.400000
10098 14946 10100 1 109.50000 418.400000
10099 14946 10100 1 109.50000 418.400000
5529 14947 6018 1 109.50000 418.400000
5529 14947 8936 1 109.50000 418.400000
5529 14947 10101 1 109.50000 418.400000
6018 14947 8936 1 109.50000 418.400000
6018 14947 10101 1 109.50000 418.400000
8936 14947 10101 1 109.50000 418.400000
2955 14948 4387 1 109.50000 418.400000
2955 14948 10102 1 109.50000 418.400000
2955 14948 10103 1 109.50000 418.400000
4387 14948 10102 1 109.50000 418.400000
4387 14948 10103 1 109.50000 418.400000
10102 14948 10103 1 109.50000 418.400000
568 14949 2239 1 109.50000 418.400000
568 14949 7509 1 109.50000 418.400000
568 14949 11160 1 109.50000 418.400000
2239 14949 7509 1 109.50000 418.400000
2239 14949 11160 1 109.50000 418.400000
7509 14949 11160 1 109.50000 418.400000
670 14950 4937 1 109.50000 418.400000
670 14950 4939 1 109.50000 418.400000
670 14950 9314 1 109.50000 418.400000
4937 14950 4939 1 109.50000 418.400000
4937 14950 9314 1 109.50000 418.400000
4939 14950 9314 1 109.50000 418.400000
763 14951 4095 1 109.50000 418.400000
763 14951 9273 1 109.50000 418.400000
763 14951 10106 1 109.50000 418.400000
4095 14951 9273 1 109.50000 418.400000
4095 14951 10106 1 109.50000 418.400000
9273 14951 10106 1 109.50000 418.400000
3163 14952 5783 1 109.50000 418.400000
3163 14952 9071 1 109.50000 418.400000
3163 14952 10107 1 109.50000 418.400000
5783 14952 9071 1 109.50000 418.400000
5783 14952 10107 1 109.50000 418.400000
9071 14952 10107 1 109.50000 418.400000
2264 14953 4328 1 109.50000 418.400000
2264 14953 10108 1 109.50000 418.400000
2264 14953 10109 1 109.50000 418.400000
4328 14953 10108 1 109.50000 418.400000
4328 14953 10109 1 109.50000 418.400000
10108 14953 10109 1 109.50000 418.400000
9097 14954 9564 1 109.50000 418.400000
9097 14954 10110 1 109.50000 418.400000
9097 14954 10111 1 109.50000 418.400000
9564 14954 10110 1 109.50000 418.400000
9564 14954 10111 1 109.50000 418.400000
10110 14954 10111 1 109.50000 418.400000
1383 14955 8673 1 109.50000 418.400000
1383 14955 10112 1 109.50000 418.400000
1383 14955 10113 1 109.50000 418.400000
8673 14955 10112 1 109.50000 418.400000
8673 14955 10113 1 109.50000 418.400000
10112 14955 10113 1 109.50000 418.400000
2775 14956 8475 1 109.50000 418.400000
2775 14956 9067 1 109.50000 418.400000
2775 14956 10114 1 109.50000 418.400000
8475 14956 9067 1 109.50000 418.400000
8475 14956 10114 1 109.50000 418.400000
9067 14956 10114 1 109.50000 418.400000
2939 14957 10000 1 109.50000 418.400000
2939 14957 10115 1 109.50000 418.400000
2939 14957 10116 1 109.50000 418.400000
10000 14957 10115 1 109.50000 418.400000
10000 14957 10116 1 109.50000 418.400000
10115 14957 10116 1 109.50000 418.400000
28 14958 1208 1 109.50000 418.400000
28 14958 10117 1 109.50000 418.400000
28 14958 10118 1 109.50000 418.400000
1208 14958 10117 1 109.50000 418.400000
1208 14958 10118 1 109.50000 418.400000
10117 14958 10118 1 109.50000 418.400000
1367 14959 5744 1 109.50000 418.400000
1367 14959 8355 1 109.50000 418.400000
1367 14959 8558 1 109.50000 418.400000
5744 14959 8355 1 109.50000 418.400000
5744 14959 8558 1 109.50000 418.400000
8355 14959 8558 1 109.50000 418.400000
1441 14960 4269 1 109.50000 418.400000
1441 14960 9981 1 109.50000 418.400000
1441 14960 10120 1 109.50000 418.400000
4269 14960 9981 1 109.50000 418.400000
4269 14960 10120 1 109.50000 418.400000
9981 14960 10120 1 109.50000 418.400000
3507 14961 7330 1 109.50000 418.400000
3507 14961 8286 1 109.50000 418.400000
3507 14961 9267 1 109.50000 418.400000
7330 14961 8286 1 109.50000 418.400000
7330 14961 9267 1 109.50000 418.400000
8286 14961 9267 1 109.50000 418.400000
2801 14962 4187 1 109.50000 418.400000
2801 14962 9736 1 109.50000 418.400000
2801 14962 10122 1 109.50000 418.400000
4187 14962 9736 1 109.50000 418.400000
4187 14962 10122 1 109.50000 418.400000
9736 14962 10122 1 109.50000 418.400000
3822 14963 5243 1 109.50000 418.400000
3822 14963 9343 1 109.50000 418.400000
3822 14963 10123 1 109.50000 418.400000
5243 14963 9343 1 109.50000 418.400000
5243 14963 10123 1 109.50000 418.400000
9343 14963 10123 1 109.50000 418.400000
148 14964 150 1 109.50000 418.400000
148 14964 1489 1 109.50000 418.400000
148 14964 7074 1 109.50000 418.400000
150 14964 1489 1 109.50000 418.400000
150 14964 7074 1 109.50000 418.400000
1489 14964 7074 1 109.50000 418.400000
8055 14965 10010 1 109.50000 418.400000
8055 14965 10125 1 109.50000 418.400000
8055 14965 10126 1 109.50000 418.400000
10010 14965 10125 1 109.50000 418.400000
10010 14965 10126 1 109.50000 418.400000
10125 14965 10126 1 109.50000 418.400000
3512 14966 4572 1 109.50000 418.400000
3512 14966 8833 1 109.50000 418.400000
3512 14966 10127 1 109.50000 418.400000
4572 14966 8833 1 109.50000 418.400000
4572 14966 10127 1 109.50000 418.400000
8833 14966 10127 1 109.50000 418.400000
2774 14967 4824 1 109.50000 418.400000
2774 14967 8269 1 109.50000 418.400000
2774 14967 10128 1 109.50000 418.400000
4824 14967 8269 1 109.50000 418.400000
4824 14967 10128 1 109.50000 418.400000
8269 14967 10128 1 109.50000 418.400000
6682 14968 7617 1 109.50000 418.400000
6682 14968 8455 1 109.50000 418.400000
6682 14968 9870 1 109.50000 418.400000
7617 14968 8455 1 109.50000 418.400000
7617 14968 9870 1 109.50000 418.400000
8455 14968 9870 1 109.50000 418.400000
1072 14969 8724 1 109.50000 418.400000
1072 14969 10129 1 109.50000 418.400000
1072 14969 10130 1 109.50000 418.400000
8724 14969 10129 1 109.50000 418.400000
8724 14969 10130 1 109.50000 418.400000
10129 14969 10130 1 109.50000 418.400000
3659 14970 3663 1 109.50000 418.400000
3659 14970 9347 1 109.50000 418.400000
3659 14970 10131 1 109.50000 418.400000
3663 14970 9347 1 109.50000 418.400000
3663 14970 10131 1 109.50000 418.400000
9347 14970 10131 1 109.50000 418.400000
10132 14971 10133 1 109.50000 418.400000
10132 14971 10134 1 109.50000 418.400000
10132 14971 10135 1 109.50000 418.400000
10133 14971 10134 1 109.50000 418.400000
10133 14971 10135 1 109.50000 418.400000
10134 14971 10135 1 109.50000 418.400000
7808 14972 8759 1 109.50000 418.400000
7808 14972 9331 1 109.50000 418.400000
7808 14972 10136 1 109.50000 418.400000
8759 14972 9331 1 109.50000 418.400000
8759 14972 10136 1 109.50000 418.400000
9331 14972 10136 1 109.50000 418.400000
1402 14973 4903 1 109.50000 418.400000
1402 14973 10110 1 109.50000 418.400000
1402 14973 10137 1 109.50000 418.400000
4903 14973 10110 1 109.50000 418.400000
4903 14973 10137 1 109.50000 418.400000
10110 14973 10137 1 109.50000 418.400000
2038 14974 6699 1 109.50000 418.400000
2038 14974 10118 1 109.50000 418.400000
2038 14974 10138 1 109.50000 418.400000
6699 14974 10118 1 109.50000 418.400000
6699 14974 10138 1 109.50000 418.400000
10118 14974 10138 1 109.50000 418.400000
2987 14975 7606 1 109.50000 418.400000
2987 14975 7673 1 109.50000 418.400000
2987 14975 10114 1 109.50000 418.400000
7606 14975 7673 1 109.50000 418.400000
7606 14975 10114 1 109.50000 418.400000
7673 14975 10114 1 109.50000 418.400000
1478 14976 1918 1 109.50000 418.400000
1478 14976 7912 1 109.50000 418.400000
1478 14976 10139 1 109.50000 418.400000
1918 14976 7912 1 109.50000 418.400000
1918 14976 10139 1 109.50000 418.400000
7912 14976 10139 1 109.50000 418.400000
4151 14977 5884 1 109.50000 418.400000
4151 14977 8645 1 109.50000 418.400000
4151 14977 10021 1 109.50000 418.400000
5884 14977 8645 1 109.50000 418.400000
5884 14977 10021 1 109.50000 418.400000
8645 14977 10021 1 109.50000 418.400000
672 14978 6966 1 109.50000 418.400000
672 14978 7069 1 109.50000 418.400000
672 14978 10094 1 109.50000 418.400000
6966 14978 7069 1 109.50000 418.400000
6966 14978 10094 1 109.50000 418.400000
7069 14978 10094 1 109.50000 418.400000
2938 14979 7391 1 109.50000 418.400000
2938 14979 8983 1 109.50000 418.400000
2938 14979 10142 1 109.50000 418.400000
7391 14979 8983 1 109.50000 418.400000
7391 14979 10142 1 109.50000 418.400000
8983 14979 10142 1 109.50000 418.400000
469 14980 3072 1 109.50000 418.400000
469 14980 10144 1 109.50000 418.400000
469 14980 11237 1 109.50000 418.400000
3072 14980 10144 1 109.50000 418.400000
3072 14980 11237 1 109.50000 418.400000
10144 14980 11237 1 109.50000 418.400000
3643 14981 10145 1 109.50000 418.400000
3643 14981 10146 1 109.50000 418.400000
3643 14981 10147 1 109.50000 418.400000
10145 14981 10146 1 109.50000 418.400000
10145 14981 10147 1 109.50000 418.400000
10146 14981 10147 1 109.50000 418.400000
4966 14982 6647 1 109.50000 418.400000
4966 14982 9544 1 109.50000 418.400000
4966 14982 9592 1 109.50000 418.400000
6647 14982 9544 1 109.50000 418.400000
6647 14982 9592 1 109.50000 418.400000
9544 14982 9592 1 109.50000 418.400000
4796 14983 4803 1 109.50000 418.400000
4796 14983 8838 1 109.50000 418.400000
4796 14983 10151 1 109.50000 418.400000
4803 14983 8838 1 109.50000 418.400000
4803 14983 10151 1 109.50000 418.400000
8838 14983 10151 1 109.50000 418.400000
3241 14984 5109 1 109.50000 418.400000
3241 14984 6990 1 109.50000 418.400000
3241 14984 10152 1 109.50000 418.400000
5109 14984 6990 1 109.50000 418.400000
5109 14984 10152 1 109.50000 418.400000
6990 14984 10152 1 109.50000 418.400000
4714 14985 5147 1 109.50000 418.400000
4714 14985 8135 1 109.50000 418.400000
4714 14985 9758 1 109.50000 418.400000
5147 14985 8135 1 109.50000 418.400000
5147 14985 9758 1 109.50000 418.400000
8135 14985 9758 1 109.50000 418.400000
7730 14986 8908 1 109.50000 418.400000
7730 14986 10153 1 109.50000 418.400000
7730 14986 10154 1 109.50000 418.400000
8908 14986 10153 1 109.50000 418.400000
8908 14986 10154 1 109.50000 418.400000
10153 14986 10154 1 109.50000 418.400000
1749 14987 5021 1 109.50000 418.400000
1749 14987 6740 1 109.50000 418.400000
1749 14987 10155 1 109.50000 418.400000
5021 14987 6740 1 109.50000 418.400000
5021 14987 10155 1 109.50000 418.400000
6740 14987 10155 1 109.50000 418.400000
6730 14988 7205 1 109.50000 418.400000
6730 14988 8646 1 109.50000 418.400000
6730 14988 10157 1 109.50000 418.400000
7205 14988 8646 1 109.50000 418.400000
7205 14988 10157 1 109.50000 418.400000
8646 14988 10157 1 109.50000 418.400000
202 14989 204 1 109.50000 418.400000
202 14989 9061 1 109.50000 418.400000
202 14989 10158 1 109.50000 418.400000
204 14989 9061 1 109.50000 418.400000
204 14989 10158 1 109.50000 418.400000
9061 14989 10158 1 109.50000 418.400000
1691 14990 7476 1 109.50000 418.400000
1691 14990 7658 1 109.50000 418.400000
1691 14990 10159 1 109.50000 418.400000
7476 14990 7658 1 109.50000 418.400000
7476 14990 10159 1 109.50000 418.400000
7658 14990 10159 1 109.50000 418.400000
3558 14991 6982 1 109.50000 418.400000
3558 14991 9039 1 109.50000 418.400000
3558 14991 10160 1 109.50000 418.400000
6982 14991 9039 1 109.50000 418.400000
6982 14991 10160 1 109.50000 418.400000
9039 14991 10160 1 109.50000 418.400000
1551 14992 6919 1 109.50000 418.400000
1551 14992 7629 1 109.50000 418.400000
1551 14992 9916 1 109.50000 418.400000
6919 14992 7629 1 109.50000 418.400000
6919 14992 9916 1 109.50000 418.400000
7629 14992 9916 1 109.50000 418.400000
1169 14993 8083 1 109.50000 418.400000
1169 14993 10161 1 109.50000 418.400000
1169 14993 10162 1 109.50000 418.400000
8083 14993 10161 1 109.50000 418.400000
8083 14993 10162 1 109.50000 418.400000
10161 14993 10162 1 109.50000 418.400000
1710 14994 4872 1 109.50000 418.400000
1710 14994 10163 1 109.50000 418.400000
1710 14994 10164 1 109.50000 418.400000
4872 14994 10163 1 109.50000 418.400000
4872 14994 10164 1 109.50000 418.400000
10163 14994 10164 1 109.50000 418.400000
2900 14995 4765 1 109.50000 418.400000
2900 14995 7051 1 109.50000 418.400000
2900 14995 9490 1 109.50000 418.400000
4765 14995 7051 1 109.50000 418.400000
4765 14995 9490 1 109.50000 418.400000
7051 14995 9490 1 109.50000 418.400000
1807 14996 4537 1 109.50000 418.400000
1807 14996 8134 1 109.50000 418.400000
1807 14996 10166 1 109.50000 418.400000
4537 14996 8134 1 109.50000 418.400000
4537 14996 10166 1 109.50000 418.400000
8134 14996 10166 1 109.50000 418.400000
3160 14997 6509 1 109.50000 418.400000
3160 14997 8478 1 109.50000 418.400000
3160 14997 10167 1 109.50000 418.400000
6509 14997 8478 1 109.50000 418.400000
6509 14997 10167 1 109.50000 418.400000
8478 14997 10167 1 109.50000 418.400000
4874 14998 7305 1 109.50000 418.400000
4874 14998 10168 1 109.50000 418.400000
4874 14998 10169 1 109.50000 418.400000
7305 14998 10168 1 109.50000 418.400000
7305 14998 10169 1 109.50000 418.400000
10168 14998 10169 1 109.50000 418.400000
4494 14999 8043 1 109.50000 418.400000
4494 14999 8044 1 109.50000 418.400000
4494 14999 11191 1 109.50000 418.400000
8043 14999 8044 1 109.50000 418.400000
8043 14999 11191 1 109.50000 418.400000
8044 14999 11191 1 109.50000 418.400000
8955 15000 9466 1 109.50000 418.400000
8955 15000 9865 1 109.50000 418.400000
8955 15000 10170 1 109.50000 418.400000
9466 15000 9865 1 109.50000 418.400000
9466 15000 10170 1 109.50000 418.400000
9865 15000 10170 1 109.50000 418.400000
2491 15001 2492 1 109.50000 418.400000
2491 15001 10120 1 109.50000 418.400000
2491 15001 10171 1 109.50000 418.400000
2492 15001 10120 1 109.50000 418.400000
2492 15001 10171 1 109.50000 418.400000
10120 15001 10171 1 109.50000 418.400000
6482 15002 7424 1 109.50000 418.400000
6482 15002 10172 1 109.50000 418.400000
6482 15002 10173 1 109.50000 418.400000
7424 15002 10172 1 109.50000 418.400000
7424 15002 10173 1 109.50000 418.400000
10172 15002 10173 1 109.50000 418.400000
2024 15003 2230 1 109.50000 418.400000
2024 15003 9915 1 109.50000 418.400000
2024 15003 10174 1 109.50000 418.400000
2230 15003 9915 1 109.50000 418.400000
2230 15003 10174 1 109.50000 418.400000
9915 15003 10174 1 109.50000 418.400000
8667 15004 10175 1 109.50000 418.400000
8667 15004 10176 1 109.50000 418.400000
8667 15004 10698 1 109.50000 418.400000
10175 15004 10176 1 109.50000 418.400000
10175 15004 10698 1 109.50000 418.400000
10176 15004 10698 1 109.50000 418.400000
8191 15005 9515 1 109.50000 418.400000
8191 15005 10071 1 109.50000 418.400000
8191 15005 10177 1 109.50000 418.400000
9515 15005 10071 1 109.50000 418.400000
9515 15005 10177 1 109.50000 418.400000
10071 15005 10177 1 109.50000 418.400000
2813 15006 10178 1 109.50000 418.400000
2813 15006 10179 1 109.50000 418.400000
2813 15006 10180 1 109.50000 418.400000
10178 15006 10179 1 109.50000 418.400000
10178 15006 10180 1 109.50000 418.400000
10179 15006 10180 1 109.50000 418.400000
2552 15007 6563 1 109.50000 418.400000
2552 15007 8620 1 109.50000 418.400000
2552 15007 9635 1 109.50000 418.400000
6563 15007 8620 1 109.50000 418.400000
6563 15007 9635 1 109.50000 418.400000
8620 15007 9635 1 109.50000 418.400000
10116 15008 10129 1 109.50000 418.400000
10116 15008 10181 1 109.50000 418.400000
10116 15008 10182 1 109.50000 418.400000
10129 15008 10181 1 109.50000 418.400000
10129 15008 10182 1 109.50000 418.400000
10181 15008 10182 1 109.50000 418.400000
8685 15009 9800 1 109.50000 418.400000
8685 15009 10183 1 109.50000 418.400000
8685 15009 10184 1 109.50000 418.400000
9800 15009 10183 1 109.50000 418.400000
9800 15009 10184 1 109.50000 418.400000
10183 15009 10184 1 109.50000 418.400000
689 15010 1731 1 109.50000 418.400000
689 15010 3421 1 109.50000 418.400000
689 15010 10186 1 109.50000 418.400000
1731 15010 3421 1 109.50000 418.400000
1731 15010 10186 1 109.50000 418.400000
3421 15010 10186 1 109.50000 418.400000
2002 15011 4710 1 109.50000 418.400000
2002 15011 10187 1 109.50000 418.400000
2002 15011 10188 1 109.50000 418.400000
4710 15011 10187 1 109.50000 418.400000
4710 15011 10188 1 109.50000 418.400000
10187 15011 10188 1 109.50000 418.400000
175 15012 5843 1 109.50000 418.400000
175 15012 9271 1 109.50000 418.400000
175 15012 11171 1 109.50000 418.400000
5843 15012 9271 1 109.50000 418.400000
5843 15012 11171 1 109.50000 418.400000
9271 15012 11171 1 109.50000 418.400000
9547 15013 9621 1 109.50000 418.400000
9547 15013 10055 1 109.50000 418.400000
9547 15013 10189 1 109.50000 418.400000
9621 15013 10055 1 109.50000 418.400000
9621 15013 10189 1 109.50000 418.400000
10055 15013 10189 1 109.50000 418.400000
8415 15014 8662 1 109.50000 418.400000
8415 15014 10190 1 109.50000 418.400000
8415 15014 10191 1 109.50000 418.400000
8662 15014 10190 1 109.50000 418.400000
8662 15014 10191 1 109.50000 418.400000
10190 15014 10191 1 109.50000 418.400000
2918 15015 5617 1 109.50000 418.400000
2918 15015 10192 1 109.50000 418.400000
2918 15015 10193 1 109.50000 418.400000
5617 15015 10192 1 109.50000 418.400000
5617 15015 10193 1 109.50000 418.400000
10192 15015 10193 1 109.50000 418.400000
5610 15016 9176 1 109.50000 418.400000
5610 15016 10194 1 109.50000 418.400000
5610 15016 11022 1 109.50000 418.400000
9176 15016 10194 1 109.50000 418.400000
9176 15016 11022 1 109.50000 418.400000
10194 15016 11022 1 109.50000 418.400000
2582 15017 6198 1 109.50000 418.400000
2582 15017 10196 1 109.50000 418.400000
2582 15017 10197 1 109.50000 418.400000
6198 15017 10196 1 109.50000 418.400000
6198 15017 10197 1 109.50000 418.400000
10196 15017 10197 1 109.50000 418.400000
5929 15018 7029 1 109.50000 418.400000
5929 15018 9046 1 109.50000 418.400000
5929 15018 10198 1 109.50000 418.400000
7029 15018 9046 1 109.50000 418.400000
7029 15018 10198 1 109.50000 418.400000
9046 15018 10198 1 109.50000 418.400000
564 15019 7340 1 109.50000 418.400000
564 15019 9666 1 109.50000 418.400000
564 15019 10200 1 109.50000 418.400000
7340 15019 9666 1 109.50000 418.400000
7340 15019 10200 1 109.50000 418.400000
9666 15019 10200 1 109.50000 418.400000
8586 15020 9502 1 109.50000 418.400000
8586 15020 10201 1 109.50000 418.400000
8586 15020 10202 1 109.50000 418.400000
9502 15020 10201 1 109.50000 418.400000
9502 15020 10202 1 109.50000 418.400000
10201 15020 10202 1 109.50000 418.400000
324 15021 6293 1 109.50000 418.400000
324 15021 7527 1 109.50000 418.400000
324 15021 10203 1 109.50000 418.400000
6293 15021 7527 1 109.50000 418.400000
6293 15021 10203 1 109.50000 418.400000
7527 15021 10203 1 109.50000 418.400000
829 15022 5508 1 109.50000 418.400000
829 15022 7013 1 109.50000 418.400000
829 15022 10204 1 109.50000 418.400000
5508 15022 7013 1 109.50000 418.400000
5508 15022 10204 1 109.50000 418.400000
7013 15022 10204 1 109.50000 418.400000
3496 15023 5793 1 109.50000 418.400000
3496 15023 9980 1 109.50000 418.400000
3496 15023 10205 1 109.50000 418.400000
5793 15023 9980 1 109.50000 418.400000
5793 15023 10205 1 109.50000 418.400000
9980 15023 10205 1 109.50000 418.400000
1297 15024 1786 1 109.50000 418.400000
1297 15024 8748 1 109.50000 418.400000
1297 15024 8751 1 109.50000 418.400000
1786 15024 8748 1 109.50000 418.400000
1786 15024 8751 1 109.50000 418.400000
8748 15024 8751 1 109.50000 418.400000
4141 15025 10206 1 109.50000 418.400000
4141 15025 10207 1 109.50000 418.400000
4141 15025 10208 1 109.50000 418.400000
10206 15025 10207 1 109.50000 418.400000
10206 15025 10208 1 109.50000 418.400000
10207 15025 10208 1 109.50000 418.400000
2573 15026 7282 1 109.50000 418.400000
2573 15026 10209 1 109.50000 418.400000
2573 15026 10210 1 109.50000 418.400000
7282 15026 10209 1 109.50000 418.400000
7282 15026 10210 1 109.50000 418.400000
10209 15026 10210 1 109.50000 418.400000
3808 15027 6865 1 109.50000 418.400000
3808 15027 10211 1 109.50000 418.400000
3808 15027 10212 1 109.50000 418.400000
6865 15027 10211 1 109.50000 418.400000
6865 15027 10212 1 109.50000 418.400000
10211 15027 10212 1 109.50000 418.400000
5730 15028 6508 1 109.50000 418.400000
5730 15028 10214 1 109.50000 418.400000
5730 15028 10215 1 109.50000 418.400000
6508 15028 10214 1 109.50000 418.400000
6508 15028 10215 1 109.50000 418.400000
10214 15028 10215 1 109.50000 418.400000
7145 15029 8176 1 109.50000 418.400000
7145 15029 8599 1 109.50000 418.400000
7145 15029 10216 1 109.50000 418.400000
8176 15029 8599 1 109.50000 418.400000
8176 15029 10216 1 109.50000 418.400000
8599 15029 10216 1 109.50000 418.400000
4162 15030 8999 1 109.50000 418.400000
4162 15030 9114 1 109.50000 418.400000
4162 15030 10217 1 109.50000 418.400000
8999 15030 9114 1 109.50000 418.400000
8999 15030 10217 1 109.50000 418.400000
9114 15030 10217 1 109.50000 418.400000
9366 15031 9918 1 109.50000 418.400000
9366 15031 10218 1 109.50000 418.400000
9366 15031 10219 1 109.50000 418.400000
9918 15031 10218 1 109.50000 418.400000
9918 15031 10219 1 109.50000 418.400000
10218 15031 10219 1 109.50000 418.400000
7835 15032 10220 1 109.50000 418.400000
7835 15032 10221 1 109.50000 418.400000
7835 15032 10222 1 109.50000 418.400000
10220 15032 10221 1 109.50000 418.400000
10220 15032 10222 1 109.50000 418.400000
10221 15032 10222 1 109.50000 418.400000
2063 15033 2912 1 109.50000 418.400000
2063 15033 4049 1 109.50000 418.400000
2063 15033 10223 1 109.50000 418.400000
2912 15033 4049 1 109.50000 418.400000
2912 15033 10223 1 109.50000 418.400000
4049 15033 10223 1 109.50000 418.400000
337 15034 9438 1 109.50000 418.400000
337 15034 9681 1 109.50000 418.400000
337 15034 10224 1 109.50000 418.400000
9438 15034 9681 1 109.50000 418.400000
9438 15034 10224 1 109.50000 418.400000
9681 15034 10224 1 109.50000 418.400000
6911 15035 10225 1 109.50000 418.400000
6911 15035 10226 1 109.50000 418.400000
6911 15035 10227 1 109.50000 418.400000
10225 15035 10226 1 109.50000 418.400000
10225 15035 10227 1 109.50000 418.400000
10226 15035 10227 1 109.50000 418.400000
2677 15036 4234 1 109.50000 418.400000
2677 15036 7831 1 109.50000 418.400000
2677 15036 10228 1 109.50000 418.400000
4234 15036 7831 1 109.50000 418.400000
4234 15036 10228 1 109.50000 418.400000
7831 15036 10228 1 109.50000 418.400000
6936 15037 8288 1 109.50000 418.400000
6936 15037 9824 1 109.50000 418.400000
6936 15037 10231 1 109.50000 418.400000
8288 15037 9824 1 109.50000 418.400000
8288 15037 10231 1 109.50000 418.400000
9824 15037 10231 1 109.50000 418.400000
5588 15038 9684 1 109.50000 418.400000
5588 15038 10232 1 109.50000 418.400000
5588 15038 10233 1 109.50000 418.400000
9684 15038 10232 1 109.50000 418.400000
9684 15038 10233 1 109.50000 418.400000
10232 15038 10233 1 109.50000 418.400000
9535 15039 9571 1 109.50000 418.400000
9535 15039 10234 1 109.50000 418.400000
9535 15039 10235 1 109.50000 418.400000
9571 15039 10234 1 109.50000 418.400000
9571 15039 10235 1 109.50000 418.400000
10234 15039 10235 1 109.50000 418.400000
3807 15040 3965 1 109.50000 418.400000
3807 15040 10236 1 109.50000 418.400000
3807 15040 10237 1 109.50000 418.400000
3965 15040 10236 1 109.50000 418.400000
3965 15040 10237 1 109.50000 418.400000
10236 15040 10237 1 109.50000 418.400000
930 15041 6904 1 109.50000 418.400000
930 15041 7923 1 109.50000 418.400000
930 15041 8626 1 109.50000 418.400000
6904 15041 7923 1 109.50000 418.400000
6904 15041 8626 1 109.50000 418.400000
7923 15041 8626 1 109.50000 418.400000
346 15042 9214 1 109.50000 418.400000
346 15042 10240 1 109.50000 418.400000
346 15042 10241 1 109.50000 418.400000
9214 15042 10240 1 109.50000 418.400000
9214 15042 10241 1 109.50000 418.400000
10240 15042 10241 1 109.50000 418.400000
1560 15043 8325 1 109.50000 418.400000
1560 15043 10242 1 109.50000 418.400000
1560 15043 10243 1 109.50000 418.400000
8325 15043 10242 1 109.50000 418.400000
8325 15043 10243 1 109.50000 418.400000
10242 15043 10243 1 109.50000 418.400000
715 15044 3617 1 109.50000 418.400000
715 15044 4542 1 109.50000 418.400000
715 15044 10244 1 109.50000 418.400000
3617 15044 4542 1 109.50000 418.400000
3617 15044 10244 1 109.50000 418.400000
4542 15044 10244 1 109.50000 418.400000
3307 15045 3830 1 109.50000 418.400000
3307 15045 4574 1 109.50000 418.400000
3307 15045 4914 1 109.50000 418.400000
3830 15045 4574 1 109.50000 418.400000
3830 15045 4914 1 109.50000 418.400000
4574 15045 4914 1 109.50000 418.400000
119 15046 8154 1 109.50000 418.400000
119 15046 8156 1 109.50000 418.400000
119 15046 10245 1 109.50000 418.400000
8154 15046 8156 1 109.50000 418.400000
8154 15046 10245 1 109.50000 418.400000
8156 15046 10245 1 109.50000 418.400000
1243 15047 8926 1 109.50000 418.400000
1243 15047 9925 1 109.50000 418.400000
1243 15047 10246 1 109.50000 418.400000
8926 15047 9925 1 109.50000 418.400000
8926 15047 10246 1 109.50000 418.400000
9925 15047 10246 1 109.50000 418.400000
1409 15048 1410 1 109.50000 418.400000
1409 15048 9559 1 109.50000 418.400000
1409 15048 10247 1 109.50000 418.400000
1410 15048 9559 1 109.50000 418.400000
1410 15048 10247 1 109.50000 418.400000
9559 15048 10247 1 109.50000 418.400000
1131 15049 6727 1 109.50000 418.400000
1131 15049 10248 1 109.50000 418.400000
1131 15049 10249 1 109.50000 418.400000
6727 15049 10248 1 109.50000 418.400000
6727 15049 10249 1 109.50000 418.400000
10248 15049 10249 1 109.50000 418.400000
3466 15050 8070 1 109.50000 418.400000
3466 15050 9893 1 109.50000 418.400000
3466 15050 10250 1 109.50000 418.400000
8070 15050 9893 1 109.50000 418.400000
8070 15050 10250 1 109.50000 418.400000
9893 15050 10250 1 109.50000 418.400000
3660 15051 9848 1 109.50000 418.400000
3660 15051 10251 1 109.50000 418.400000
3660 15051 10252 1 109.50000 418.400000
9848 15051 10251 1 109.50000 418.400000
9848 15051 10252 1 109.50000 418.400000
10251 15051 10252 1 109.50000 418.400000
1704 15052 8189 1 109.50000 418.400000
1704 15052 10253 1 109.50000 418.400000
1704 15052 10254 1 109.50000 418.400000
8189 15052 10253 1 109.50000 418.400000
8189 15052 10254 1 109.50000 418.400000
10253 15052 10254 1 109.50000 418.400000
2020 15053 4352 1 109.50000 418.400000
2020 15053 7594 1 109.50000 418.400000
2020 15053 8898 1 109.50000 418.400000
4352 15053 7594 1 109.50000 418.400000
4352 15053 8898 1 109.50000 418.400000
7594 15053 8898 1 109.50000 418.400000
3044 15054 6281 1 109.50000 418.400000
3044 15054 10112 1 109.50000 418.400000
3044 15054 10255 1 109.50000 418.400000
6281 15054 10112 1 109.50000 418.400000
6281 15054 10255 1 109.50000 418.400000
10112 15054 10255 1 109.50000 418.400000
7152 15055 9463 1 109.50000 418.400000
7152 15055 10256 1 109.50000 418.400000
7152 15055 10257 1 109.50000 418.400000
9463 15055 10256 1 109.50000 418.400000
9463 15055 10257 1 109.50000 418.400000
10256 15055 10257 1 109.50000 418.400000
5499 15056 5731 1 109.50000 418.400000
5499 15056 8074 1 109.50000 418.400000
5499 15056 9498 1 109.50000 418.400000
5731 15056 8074 1 109.50000 418.400000
5731 15056 9498 1 109.50000 418.400000
8074 15056 9498 1 109.50000 418.400000
7110 15057 8881 1 109.50000 418.400000
7110 15057 9712 1 109.50000 418.400000
7110 15057 10258 1 109.50000 418.400000
8881 15057 9712 1 109.50000 418.400000
8881 15057 10258 1 109.50000 418.400000
9712 15057 10258 1 109.50000 418.400000
80 15058 9024 1 109.50000 418.400000
80 15058 9662 1 109.50000 418.400000
80 15058 9698 1 109.50000 418.400000
9024 15058 9662 1 109.50000 418.400000
9024 15058 9698 1 109.50000 418.400000
9662 15058 9698 1 109.50000 418.400000
8717 15059 9477 1 109.50000 418.400000
8717 15059 10260 1 109.50000 418.400000
8717 15059 10261 1 109.50000 418.400000
9477 15059 10260 1 109.50000 418.400000
9477 15059 10261 1 109.50000 418.400000
10260 15059 10261 1 109.50000 418.400000
358 15060 3823 1 109.50000 418.400000
358 15060 9796 1 109.50000 418.400000
358 15060 10262 1 109.50000 418.400000
3823 15060 9796 1 109.50000 418.400000
3823 15060 10262 1 109.50000 418.400000
9796 15060 10262 1 109.50000 418.400000
1463 15061 8906 1 109.50000 418.400000
1463 15061 10263 1 109.50000 418.400000
1463 15061 10264 1 109.50000 418.400000
8906 15061 10263 1 109.50000 418.400000
8906 15061 10264 1 109.50000 418.400000
10263 15061 10264 1 109.50000 418.400000
3995 15062 6071 1 109.50000 418.400000
3995 15062 10265 1 109.50000 418.400000
3995 15062 11218 1 109.50000 418.400000
6071 15062 10265 1 109.50000 418.400000
6071 15062 11218 1 109.50000 418.400000
10265 15062 11218 1 109.50000 418.400000
3055 15063 5891 1 109.50000 418.400000
3055 15063 10266 1 109.50000 418.400000
3055 15063 10267 1 109.50000 418.400000
5891 15063 10266 1 109.50000 418.400000
5891 15063 10267 1 109.50000 418.400000
10266 15063 10267 1 109.50000 418.400000
6246 15064 9967 1 109.50000 418.400000
6246 15064 10268 1 109.50000 418.400000
6246 15064 10269 1 109.50000 418.400000
9967 15064 10268 1 109.50000 418.400000
9967 15064 10269 1 109.50000 418.400000
10268 15064 10269 1 109.50000 418.400000
1467 15065 1709 1 109.50000 418.400000
1467 15065 6817 1 109.50000 418.400000
1467 15065 8200 1 109.50000 418.400000
1709 15065 6817 1 109.50000 418.400000
1709 15065 8200 1 109.50000 418.400000
6817 15065 8200 1 109.50000 418.400000
6927 15066 8877 1 109.50000 418.400000
6927 15066 10270 1 109.50000 418.400000
6927 15066 10271 1 109.50000 418.400000
8877 15066 10270 1 109.50000 418.400000
8877 15066 10271 1 109.50000 418.400000
10270 15066 10271 1 109.50000 418.400000
6436 15067 6949 1 109.50000 418.400000
6436 15067 8390 1 109.50000 418.400000
6436 15067 10273 1 109.50000 418.400000
6949 15067 8390 1 109.50000 418.400000
6949 15067 10273 1 109.50000 418.400000
8390 15067 10273 1 109.50000 418.400000
3875 15068 4255 1 109.50000 418.400000
3875 15068 9754 1 109.50000 418.400000
3875 15068 10088 1 109.50000 418.400000
4255 15068 9754 1 109.50000 418.400000
4255 15068 10088 1 109.50000 418.400000
9754 15068 10088 1 109.50000 418.400000
1549 15069 3715 1 109.50000 418.400000
1549 15069 3791 1 109.50000 418.400000
1549 15069 6576 1 109.50000 418.400000
3715 15069 3791 1 109.50000 418.400000
3715 15069 6576 1 109.50000 418.400000
3791 15069 6576 1 109.50000 418.400000
251 15070 1712 1 109.50000 418.400000
251 15070 9190 1 109.50000 418.400000
251 15070 10274 1 109.50000 418.400000
1712 15070 9190 1 109.50000 418.400000
1712 15070 10274 1 109.50000 418.400000
9190 15070 10274 1 109.50000 418.400000
4958 15071 6285 1 109.50000 418.400000
4958 15071 7888 1 109.50000 418.400000
4958 15071 8655 1 109.50000 418.400000
6285 15071 7888 1 109.50000 418.400000
6285 15071 8655 1 109.50000 418.400000
7888 15071 8655 1 109.50000 418.400000
6653 15072 10054 1 109.50000 418.400000
6653 15072 10277 1 109.50000 418.400000
6653 15072 10278 1 109.50000 418.400000
10054 15072 10277 1 109.50000 418.400000
10054 15072 10278 1 109.50000 418.400000
10277 15072 10278 1 109.50000 418.400000
1102 15073 2535 1 109.50000 418.400000
1102 15073 10279 1 109.50000 418.400000
1102 15073 10280 1 109.50000 418.400000
2535 15073 10279 1 109.50000 418.400000
2535 15073 10280 1 109.50000 418.400000
10279 15073 10280 1 109.50000 418.400000
1049 15074 2909 1 109.50000 418.400000
1049 15074 8727 1 109.50000 418.400000
1049 15074 10281 1 109.50000 418.400000
2909 15074 8727 1 109.50000 418.400000
2909 15074 10281 1 109.50000 418.400000
8727 15074 10281 1 109.50000 418.400000
719 15075 3135 1 109.50000 418.400000
719 15075 7950 1 109.50000 418.400000
719 15075 9287 1 109.50000 418.400000
3135 15075 7950 1 109.50000 418.400000
3135 15075 9287 1 109.50000 418.400000
7950 15075 9287 1 109.50000 418.400000
5259 15076 9570 1 109.50000 418.400000
5259 15076 10282 1 109.50000 418.400000
5259 15076 10283 1 109.50000 418.400000
9570 15076 10282 1 109.50000 418.400000
9570 15076 10283 1 109.50000 418.400000
10282 15076 10283 1 109.50000 418.400000
1390 15077 5963 1 109.50000 418.400000
1390 15077 8359 1 109.50000 418.400000
1390 15077 10284 1 109.50000 418.400000
5963 15077 8359 1 109.50000 418.400000
5963 15077 10284 1 109.50000 418.400000
8359 15077 10284 1 109.50000 418.400000
866 15078 4593 1 109.50000 418.400000
866 15078 4595 1 109.50000 418.400000
866 15078 9636 1 109.50000 418.400000
4593 15078 4595 1 109.50000 418.400000
4593 15078 9636 1 109.50000 418.400000
4595 15078 9636 1 109.50000 418.400000
1949 15079 5038 1 109.50000 418.400000
1949 15079 9289 1 109.50000 418.400000
1949 15079 10286 1 109.50000 418.400000
5038 15079 9289 1 109.50000 418.400000
5038 15079 10286 1 109.50000 418.400000
9289 15079 10286 1 109.50000 418.400000
2030 15080 4334 1 109.50000 418.400000
2030 15080 7507 1 109.50000 418.400000
2030 15080 8763 1 109.50000 418.400000
4334 15080 7507 1 109.50000 418.400000
4334 15080 8763 1 109.50000 418.400000
7507 15080 8763 1 109.50000 418.400000
5420 15081 7443 1 109.50000 418.400000
5420 15081 10040 1 109.50000 418.400000
5420 15081 10287 1 109.50000 418.400000
7443 15081 10040 1 109.50000 418.400000
7443 15081 10287 1 109.50000 418.400000
10040 15081 10287 1 109.50000 418.400000
3768 15082 7604 1 109.50000 418.400000
3768 15082 8591 1 109.50000 418.400000
3768 15082 10288 1 109.50000 418.400000
7604 15082 8591 1 109.50000 418.400000
7604 15082 10288 1 109.50000 418.400000
8591 15082 10288 1 109.50000 418.400000
3209 15083 5863 1 109.50000 418.400000
3209 15083 5864 1 109.50000 418.400000
3209 15083 10289 1 109.50000 418.400000
5863 15083 5864 1 109.50000 418.400000
5863 15083 10289 1 109.50000 418.400000
5864 15083 10289 1 109.50000 418.400000
2209 15084 8349 1 109.50000 418.400000
2209 15084 9035 1 109.50000 418.400000
2209 15084 10291 1 109.50000 418.400000
8349 15084 9035 1 109.50000 418.400000
8349 15084 10291 1 109.50000 418.400000
9035 15084 10291 1 109.50000 418.400000
2143 15085 2532 1 109.50000 418.400000
2143 15085 5785 1 109.50000 418.400000
2143 15085 9220 1 109.50000 418.400000
2532 15085 5785 1 109.50000 418.400000
2532 15085 9220 1 109.50000 418.400000
5785 15085 9220 1 109.50000 418.400000
2154 15086 7960 1 109.50000 418.400000
2154 15086 8776 1 109.50000 418.400000
2154 15086 8872 1 109.50000 418.400000
7960 15086 8776 1 109.50000 418.400000
7960 15086 8872 1 109.50000 418.400000
8776 15086 8872 1 109.50000 418.400000
3700 15087 7585 1 109.50000 418.400000
3700 15087 8649 1 109.50000 418.400000
3700 15087 10292 1 109.50000 418.400000
7585 15087 8649 1 109.50000 418.400000
7585 15087 10292 1 109.50000 418.400000
8649 15087 10292 1 109.50000 418.400000
2341 15088 8037 1 109.50000 418.400000
2341 15088 10293 1 109.50000 418.400000
2341 15088 10294 1 109.50000 418.400000
8037 15088 10293 1 109.50000 418.400000
8037 15088 10294 1 109.50000 418.400000
10293 15088 10294 1 109.50000 418.400000
2347 15089 8615 1 109.50000 418.400000
2347 15089 9514 1 109.50000 418.400000
2347 15089 10295 1 109.50000 418.400000
8615 15089 9514 1 109.50000 418.400000
8615 15089 10295 1 109.50000 418.400000
9514 15089 10295 1 109.50000 418.400000
2199 15090 4753 1 109.50000 418.400000
2199 15090 8741 1 109.50000 418.400000
2199 15090 8863 1 109.50000 418.400000
4753 15090 8741 1 109.50000 418.400000
4753 15090 8863 1 109.50000 418.400000
8741 15090 8863 1 109.50000 418.400000
1354 15091 1356 1 109.50000 418.400000
1354 15091 2415 1 109.50000 418.400000
1354 15091 7725 1 109.50000 418.400000
1356 15091 2415 1 109.50000 418.400000
1356 15091 7725 1 109.50000 418.400000
2415 15091 7725 1 109.50000 418.400000
5914 15092 6218 1 109.50000 418.400000
5914 15092 7267 1 109.50000 418.400000
5914 15092 7633 1 109.50000 418.400000
6218 15092 7267 1 109.50000 418.400000
6218 15092 7633 1 109.50000 418.400000
7267 15092 7633 1 109.50000 418.400000
1132 15093 1226 1 109.50000 418.400000
1132 15093 6586 1 109.50000 418.400000
1132 15093 6587 1 109.50000 418.400000
1226 15093 6586 1 109.50000 418.400000
1226 15093 6587 1 109.50000 418.400000
6586 15093 6587 1 109.50000 418.400000
6094 15094 10137 1 109.50000 418.400000
6094 15094 10297 1 109.50000 418.400000
6094 15094 10298 1 109.50000 418.400000
10137 15094 10297 1 109.50000 418.400000
10137 15094 10298 1 109.50000 418.400000
10297 15094 10298 1 109.50000 418.400000
626 15095 4766 1 109.50000 418.400000
626 15095 7290 1 109.50000 418.400000
626 15095 9579 1 109.50000 418.400000
4766 15095 7290 1 109.50000 418.400000
4766 15095 9579 1 109.50000 418.400000
7290 15095 9579 1 109.50000 418.400000
5119 15096 7969 1 109.50000 418.400000
5119 15096 9336 1 109.50000 418.400000
5119 15096 10299 1 109.50000 418.400000
7969 15096 9336 1 109.50000 418.400000
7969 15096 10299 1 109.50000 418.400000
9336 15096 10299 1 109.50000 418.400000
4487 15097 6405 1 109.50000 418.400000
4487 15097 9910 1 109.50000 418.400000
4487 15097 10031 1 109.50000 418.400000
6405 15097 9910 1 109.50000 418.400000
6405 15097 10031 1 109.50000 418.400000
9910 15097 10031 1 109.50000 418.400000
6015 15098 6582 1 109.50000 418.400000
6015 15098 8088 1 109.50000 418.400000
6015 15098 8547 1 109.50000 418.400000
6582 15098 8088 1 109.50000 418.400000
6582 15098 8547 1 109.50000 418.400000
8088 15098 8547 1 109.50000 418.400000
162 15099 3212 1 109.50000 418.400000
162 15099 6920 1 109.50000 418.400000
162 15099 10176 1 109.50000 418.400000
3212 15099 6920 1 109.50000 418.400000
3212 15099 10176 1 109.50000 418.400000
6920 15099 10176 1 109.50000 418.400000
5913 15100 8604 1 109.50000 418.400000
5913 15100 10300 1 109.50000 418.400000
5913 15100 10301 1 109.50000 418.400000
8604 15100 10300 1 109.50000 418.400000
8604 15100 10301 1 109.50000 418.400000
10300 15100 10301 1 109.50000 418.400000
4659 15101 9086 1 109.50000 418.400000
4659 15101 9554 1 109.50000 418.400000
4659 15101 10303 1 109.50000 418.400000
9086 15101 9554 1 109.50000 418.400000
9086 15101 10303 1 109.50000 418.400000
9554 15101 10303 1 109.50000 418.400000
41 15102 4923 1 109.50000 418.400000
41 15102 8681 1 109.50000 418.400000
41 15102 10304 1 109.50000 418.400000
4923 15102 8681 1 109.50000 418.400000
4923 15102 10304 1 109.50000 418.400000
8681 15102 10304 1 109.50000 418.400000
643 15103 2392 1 109.50000 418.400000
643 15103 8117 1 109.50000 418.400000
643 15103 10305 1 109.50000 418.400000
2392 15103 8117 1 109.50000 418.400000
2392 15103 10305 1 109.50000 418.400000
8117 15103 10305 1 109.50000 418.400000
502 15104 3237 1 109.50000 418.400000
502 15104 8786 1 109.50000 418.400000
502 15104 8853 1 109.50000 418.400000
3237 15104 8786 1 109.50000 418.400000
3237 15104 8853 1 109.50000 418.400000
8786 15104 8853 1 109.50000 418.400000
4456 15105 7007 1 109.50000 418.400000
4456 15105 8049 1 109.50000 418.400000
4456 15105 10308 1 109.50000 418.400000
7007 15105 8049 1 109.50000 418.400000
7007 15105 10308 1 109.50000 418.400000
8049 15105 10308 1 109.50000 418.400000
8513 15106 10133 1 109.50000 418.400000
8513 15106 10309 1 109.50000 418.400000
8513 15106 10310 1 109.50000 418.400000
10133 15106 10309 1 109.50000 418.400000
10133 15106 10310 1 109.50000 418.400000
10309 15106 10310 1 109.50000 418.400000
4426 15107 9201 1 109.50000 418.400000
4426 15107 10311 1 109.50000 418.400000
4426 15107 10312 1 109.50000 418.400000
9201 15107 10311 1 109.50000 418.400000
9201 15107 10312 1 109.50000 418.400000
10311 15107 10312 1 109.50000 418.400000
5622 15108 6792 1 109.50000 418.400000
5622 15108 8409 1 109.50000 418.400000
5622 15108 10313 1 109.50000 418.400000
6792 15108 8409 1 109.50000 418.400000
6792 15108 10313 1 109.50000 418.400000
8409 15108 10313 1 109.50000 418.400000
22 15109 4954 1 109.50000 418.400000
22 15109 10315 1 109.50000 418.400000
22 15109 10316 1 109.50000 418.400000
4954 15109 10315 1 109.50000 418.400000
4954 15109 10316 1 109.50000 418.400000
10315 15109 10316 1 109.50000 418.400000
234 15110 4203 1 109.50000 418.400000
234 15110 9802 1 109.50000 418.400000
234 15110 10317 1 109.50000 418.400000
4203 15110 9802 1 109.50000 418.400000
4203 15110 10317 1 109.50000 418.400000
9802 15110 10317 1 109.50000 418.400000
1430 15111 3138 1 109.50000 418.400000
1430 15111 4186 1 109.50000 418.400000
1430 15111 9830 1 109.50000 418.400000
3138 15111 4186 1 109.50000 418.400000
3138 15111 9830 1 109.50000 418.400000
4186 15111 9830 1 109.50000 418.400000
1515 15112 10318 1 109.50000 418.400000
1515 15112 10319 1 109.50000 418.400000
1515 15112 10320 1 109.50000 418.400000
10318 15112 10319 1 109.50000 418.400000
10318 15112 10320 1 109.50000 418.400000
10319 15112 10320 1 109.50000 418.400000
4536 15113 9757 1 109.50000 418.400000
4536 15113 10321 1 109.50000 418.400000
4536 15113 10322 1 109.50000 418.400000
9757 15113 10321 1 109.50000 418.400000
9757 15113 10322 1 109.50000 418.400000
10321 15113 10322 1 109.50000 418.400000
1947 15114 9476 1 109.50000 418.400000
1947 15114 10281 1 109.50000 418.400000
1947 15114 10323 1 109.50000 418.400000
9476 15114 10281 1 109.50000 418.400000
9476 15114 10323 1 109.50000 418.400000
10281 15114 10323 1 109.50000 418.400000
2275 15115 2311 1 109.50000 418.400000
2275 15115 5254 1 109.50000 418.400000
2275 15115 7564 1 109.50000 418.400000
2311 15115 5254 1 109.50000 418.400000
2311 15115 7564 1 109.50000 418.400000
5254 15115 7564 1 109.50000 418.400000
3609 15116 6371 1 109.50000 418.400000
3609 15116 8400 1 109.50000 418.400000
3609 15116 9457 1 109.50000 418.400000
6371 15116 8400 1 109.50000 418.400000
6371 15116 9457 1 109.50000 418.400000
8400 15116 9457 1 109.50000 418.400000
7119 15117 8654 1 109.50000 418.400000
7119 15117 9841 1 109.50000 418.400000
7119 15117 10324 1 109.50000 418.400000
8654 15117 9841 1 109.50000 418.400000
8654 15117 10324 1 109.50000 418.400000
9841 15117 10324 1 109.50000 418.400000
4305 15118 10253 1 109.50000 418.400000
4305 15118 10325 1 109.50000 418.400000
4305 15118 10326 1 109.50000 418.400000
10253 15118 10325 1 109.50000 418.400000
10253 15118 10326 1 109.50000 418.400000
10325 15118 10326 1 109.50000 418.400000
6579 15119 7677 1 109.50000 418.400000
6579 15119 10283 1 109.50000 418.400000
6579 15119 10327 1 109.50000 418.400000
7677 15119 10283 1 109.50000 418.400000
7677 15119 10327 1 109.50000 418.400000
10283 15119 10327 1 109.50000 418.400000
2077 15120 2474 1 109.50000 418.400000
2077 15120 3000 1 109.50000 418.400000
2077 15120 10328 1 109.50000 418.400000
2474 15120 3000 1 109.50000 418.400000
2474 15120 10328 1 109.50000 418.400000
3000 15120 10328 1 109.50000 418.400000
5651 15121 8719 1 109.50000 418.400000
5651 15121 10331 1 109.50000 418.400000
5651 15121 10332 1 109.50000 418.400000
8719 15121 10331 1 109.50000 418.400000
8719 15121 10332 1 109.50000 418.400000
10331 15121 10332 1 109.50000 418.400000
1432 15122 7354 1 109.50000 418.400000
1432 15122 9105 1 109.50000 418.400000
1432 15122 10135 1 109.50000 418.400000
7354 15122 9105 1 109.50000 418.400000
7354 15122 10135 1 109.50000 418.400000
9105 15122 10135 1 109.50000 418.400000
2992 15123 7883 1 109.50000 418.400000
2992 15123 8552 1 109.50000 418.400000
2992 15123 10333 1 109.50000 418.400000
7883 15123 8552 1 109.50000 418.400000
7883 15123 10333 1 109.50000 418.400000
8552 15123 10333 1 109.50000 418.400000
36 15124 639 1 109.50000 418.400000
36 15124 10334 1 109.50000 418.400000
36 15124 10335 1 109.50000 418.400000
639 15124 10334 1 109.50000 418.400000
639 15124 10335 1 109.50000 418.400000
10334 15124 10335 1 109.50000 418.400000
8351 15125 8629 1 109.50000 418.400000
8351 15125 8880 1 109.50000 418.400000
8351 15125 9821 1 109.50000 418.400000
8629 15125 8880 1 109.50000 418.400000
8629 15125 9821 1 109.50000 418.400000
8880 15125 9821 1 109.50000 418.400000
1303 15126 2528 1 109.50000 418.400000
1303 15126 5947 1 109.50000 418.400000
1303 15126 10336 1 109.50000 418.400000
2528 15126 5947 1 109.50000 418.400000
2528 15126 10336 1 109.50000 418.400000
5947 15126 10336 1 109.50000 418.400000
1041 15127 5946 1 109.50000 418.400000
1041 15127 10337 1 109.50000 418.400000
1041 15127 10338 1 109.50000 418.400000
5946 15127 10337 1 109.50000 418.400000
5946 15127 10338 1 109.50000 418.400000
10337 15127 10338 1 109.50000 418.400000
5405 15128 7475 1 109.50000 418.400000
5405 15128 9262 1 109.50000 418.400000
5405 15128 9943 1 109.50000 418.400000
7475 15128 9262 1 109.50000 418.400000
7475 15128 9943 1 109.50000 418.400000
9262 15128 9943 1 109.50000 418.400000
4698 15129 8448 1 109.50000 418.400000
4698 15129 9145 1 109.50000 418.400000
4698 15129 10340 1 109.50000 418.400000
8448 15129 9145 1 109.50000 418.400000
8448 15129 10340 1 109.50000 418.400000
9145 15129 10340 1 109.50000 418.400000
4706 15130 5773 1 109.50000 418.400000
4706 15130 6814 1 109.50000 418.400000
4706 15130 10341 1 109.50000 418.400000
5773 15130 6814 1 109.50000 418.400000
5773 15130 10341 1 109.50000 418.400000
6814 15130 10341 1 109.50000 418.400000
8458 15131 10162 1 109.50000 418.400000
8458 15131 10342 1 109.50000 418.400000
8458 15131 10343 1 109.50000 418.400000
10162 15131 10342 1 109.50000 418.400000
10162 15131 10343 1 109.50000 418.400000
10342 15131 10343 1 109.50000 418.400000
4975 15132 7039 1 109.50000 418.400000
4975 15132 10344 1 109.50000 418.400000
4975 15132 10345 1 109.50000 418.400000
7039 15132 10344 1 109.50000 418.400000
7039 15132 10345 1 109.50000 418.400000
10344 15132 10345 1 109.50000 418.400000
5831 15133 7623 1 109.50000 418.400000
5831 15133 9934 1 109.50000 418.400000
5831 15133 10346 1 109.50000 418.400000
7623 15133 9934 1 109.50000 418.400000
7623 15133 10346 1 109.50000 418.400000
9934 15133 10346 1 109.50000 418.400000
3057 15134 8005 1 109.50000 418.400000
3057 15134 10265 1 109.50000 418.400000
3057 15134 10347 1 109.50000 418.400000
8005 15134 10265 1 109.50000 418.400000
8005 15134 10347 1 109.50000 418.400000
10265 15134 10347 1 109.50000 418.400000
6359 15135 8433 1 109.50000 418.400000
6359 15135 8468 1 109.50000 418.400000
6359 15135 10348 1 109.50000 418.400000
8433 15135 8468 1 109.50000 418.400000
8433 15135 10348 1 109.50000 418.400000
8468 15135 10348 1 109.50000 418.400000
7952 15136 8924 1 109.50000 418.400000
7952 15136 9940 1 109.50000 418.400000
7952 15136 10349 1 109.50000 418.400000
8924 15136 9940 1 109.50000 418.400000
8924 15136 10349 1 109.50000 418.400000
9940 15136 10349 1 109.50000 418.400000
1333 15137 5137 1 109.50000 418.400000
1333 15137 9972 1 109.50000 418.400000
1333 15137 10350 1 109.50000 418.400000
5137 15137 9972 1 109.50000 418.400000
5137 15137 10350 1 109.50000 418.400000
9972 15137 10350 1 109.50000 418.400000
144 15138 2630 1 109.50000 418.400000
144 15138 7466 1 109.50000 418.400000
144 15138 9338 1 109.50000 418.400000
2630 15138 7466 1 109.50000 418.400000
2630 15138 9338 1 109.50000 418.400000
7466 15138 9338 1 109.50000 418.400000
9968 15139 10351 1 109.50000 418.400000
9968 15139 10352 1 109.50000 418.400000
9968 15139 10353 1 109.50000 418.400000
10351 15139 10352 1 109.50000 418.400000
10351 15139 10353 1 109.50000 418.400000
10352 15139 10353 1 109.50000 418.400000
1181 15140 7115 1 109.50000 418.400000
1181 15140 9041 1 109.50000 418.400000
1181 15140 10354 1 109.50000 418.400000
7115 15140 9041 1 109.50000 418.400000
7115 15140 10354 1 109.50000 418.400000
9041 15140 10354 1 109.50000 418.400000
138 15141 5334 1 109.50000 418.400000
138 15141 9509 1 109.50000 418.400000
138 15141 10355 1 109.50000 418.400000
5334 15141 9509 1 109.50000 418.400000
5334 15141 10355 1 109.50000 418.400000
9509 15141 10355 1 109.50000 418.400000
5861 15142 6634 1 109.50000 418.400000
5861 15142 7582 1 109.50000 418.400000
5861 15142 8474 1 109.50000 418.400000
6634 15142 7582 1 109.50000 418.400000
6634 15142 8474 1 109.50000 418.400000
7582 15142 8474 1 109.50000 418.400000
1559 15143 2578 1 109.50000 418.400000
1559 15143 7780 1 109.50000 418.400000
1559 15143 7970 1 109.50000 418.400000
2578 15143 7780 1 109.50000 418.400000
2578 15143 7970 1 109.50000 418.400000
7780 15143 7970 1 109.50000 418.400000
10086 15144 10159 1 109.50000 418.400000
10086 15144 10357 1 109.50000 418.400000
10086 15144 11336 1 109.50000 418.400000
10159 15144 10357 1 109.50000 418.400000
10159 15144 11336 1 109.50000 418.400000
10357 15144 11336 1 109.50000 418.400000
3352 15145 9520 1 109.50000 418.400000
3352 15145 10358 1 109.50000 418.400000
3352 15145 10359 1 109.50000 418.400000
9520 15145 10358 1 109.50000 418.400000
9520 15145 10359 1 109.50000 418.400000
10358 15145 10359 1 109.50000 418.400000
4602 15146 6244 1 109.50000 418.400000
4602 15146 7313 1 109.50000 418.400000
4602 15146 8079 1 109.50000 418.400000
6244 15146 7313 1 109.50000 418.400000
6244 15146 8079 1 109.50000 418.400000
7313 15146 8079 1 109.50000 418.400000
7609 15147 10360 1 109.50000 418.400000
7609 15147 10361 1 109.50000 418.400000
7609 15147 10362 1 109.50000 418.400000
10360 15147 10361 1 109.50000 418.400000
10360 15147 10362 1 109.50000 418.400000
10361 15147 10362 1 109.50000 418.400000
8679 15148 10363 1 109.50000 418.400000
8679 15148 10364 1 109.50000 418.400000
8679 15148 10365 1 109.50000 418.400000
10363 15148 10364 1 109.50000 418.400000
10363 15148 10365 1 109.50000 418.400000
10364 15148 10365 1 109.50000 418.400000
3908 15149 6377 1 109.50000 418.400000
3908 15149 10366 1 109.50000 418.400000
3908 15149 10367 1 109.50000 418.400000
6377 15149 10366 1 109.50000 418.400000
6377 15149 10367 1 109.50000 418.400000
10366 15149 10367 1 109.50000 418.400000
7603 15150 7605 1 109.50000 418.400000
7603 15150 10368 1 109.50000 418.400000
7603 15150 10369 1 109.50000 418.400000
7605 15150 10368 1 109.50000 418.400000
7605 15150 10369 1 109.50000 418.400000
10368 15150 10369 1 109.50000 418.400000
7893 15151 10097 1 109.50000 418.400000
7893 15151 10370 1 109.50000 418.400000
7893 15151 10371 1 109.50000 418.400000
10097 15151 10370 1 109.50000 418.400000
10097 15151 10371 1 109.50000 418.400000
10370 15151 10371 1 109.50000 418.400000
10372 15152 10373 1 109.50000 418.400000
10372 15152 10374 1 109.50000 418.400000
10372 15152 10375 1 109.50000 418.400000
10373 15152 10374 1 109.50000 418.400000
10373 15152 10375 1 109.50000 418.400000
10374 15152 10375 1 109.50000 418.400000
1124 15153 7766 1 109.50000 418.400000
1124 15153 8087 1 109.50000 418.400000
1124 15153 8995 1 109.50000 418.400000
7766 15153 8087 1 109.50000 418.400000
7766 15153 8995 1 109.50000 418.400000
8087 15153 8995 1 109.50000 418.400000
136 15154 7438 1 109.50000 418.400000
136 15154 8261 1 109.50000 418.400000
136 15154 8567 1 109.50000 418.400000
7438 15154 8261 1 109.50000 418.400000
7438 15154 8567 1 109.50000 418.400000
8261 15154 8567 1 109.50000 418.400000
2044 15155 8224 1 109.50000 418.400000
2044 15155 9240 1 109.50000 418.400000
2044 15155 10376 1 109.50000 418.400000
8224 15155 9240 1 109.50000 418.400000
8224 15155 10376 1 109.50000 418.400000
9240 15155 10376 1 109.50000 418.400000
7314 15156 8388 1 109.50000 418.400000
7314 15156 8519 1 109.50000 418.400000
7314 15156 10377 1 109.50000 418.400000
8388 15156 8519 1 109.50000 418.400000
8388 15156 10377 1 109.50000 418.400000
8519 15156 10377 1 109.50000 418.400000
10378 15157 10379 1 109.50000 418.400000
10378 15157 10380 1 109.50000 418.400000
10378 15157 10661 1 109.50000 418.400000
10379 15157 10380 1 109.50000 418.400000
10379 15157 10661 1 109.50000 418.400000
10380 15157 10661 1 109.50000 418.400000
5703 15158 10164 1 109.50000 418.400000
5703 15158 10381 1 109.50000 418.400000
5703 15158 10382 1 109.50000 418.400000
10164 15158 10381 1 109.50000 418.400000
10164 15158 10382 1 109.50000 418.400000
10381 15158 10382 1 109.50000 418.400000
3584 15159 4869 1 109.50000 418.400000
3584 15159 9427 1 109.50000 418.400000
3584 15159 10383 1 109.50000 418.400000
4869 15159 9427 1 109.50000 418.400000
4869 15159 10383 1 109.50000 418.400000
9427 15159 10383 1 109.50000 418.400000
2223 15160 8464 1 109.50000 418.400000
2223 15160 10201 1 109.50000 418.400000
2223 15160 10384 1 109.50000 418.400000
8464 15160 10201 1 109.50000 418.400000
8464 15160 10384 1 109.50000 418.400000
10201 15160 10384 1 109.50000 418.400000
7248 15161 7635 1 109.50000 418.400000
7248 15161 10385 1 109.50000 418.400000
7248 15161 10386 1 109.50000 418.400000
7635 15161 10385 1 109.50000 418.400000
7635 15161 10386 1 109.50000 418.400000
10385 15161 10386 1 109.50000 418.400000
1080 15162 9016 1 109.50000 418.400000
1080 15162 10387 1 109.50000 418.400000
1080 15162 10388 1 109.50000 418.400000
9016 15162 10387 1 109.50000 418.400000
9016 15162 10388 1 109.50000 418.400000
10387 15162 10388 1 109.50000 418.400000
4369 15163 7793 1 109.50000 418.400000
4369 15163 9682 1 109.50000 418.400000
4369 15163 10293 1 109.50000 418.400000
7793 15163 9682 1 109.50000 418.400000
7793 15163 10293 1 109.50000 418.400000
9682 15163 10293 1 109.50000 418.400000
2399 15164 2626 1 109.50000 418.400000
2399 15164 8317 1 109.50000 418.400000
2399 15164 8986 1 109.50000 418.400000
2626 15164 8317 1 109.50000 418.400000
2626 15164 8986 1 109.50000 418.400000
8317 15164 8986 1 109.50000 418.400000
2316 15165 6082 1 109.50000 418.400000
2316 15165 8714 1 109.50000 418.400000
2316 15165 9767 1 109.50000 418.400000
6082 15165 8714 1 109.50000 418.400000
6082 15165 9767 1 109.50000 418.400000
8714 15165 9767 1 109.50000 418.400000
70 15166 3594 1 109.50000 418.400000
70 15166 5412 1 109.50000 418.400000
70 15166 7484 1 109.50000 418.400000
3594 15166 5412 1 109.50000 418.400000
3594 15166 7484 1 109.50000 418.400000
5412 15166 7484 1 109.50000 418.400000
821 15167 4341 1 109.50000 418.400000
821 15167 4424 1 109.50000 418.400000
821 15167 9316 1 109.50000 418.400000
4341 15167 4424 1 109.50000 418.400000
4341 15167 9316 1 109.50000 418.400000
4424 15167 9316 1 109.50000 418.400000
7791 15168 8435 1 109.50000 418.400000
7791 15168 10389 1 109.50000 418.400000
7791 15168 10390 1 109.50000 418.400000
8435 15168 10389 1 109.50000 418.400000
8435 15168 10390 1 109.50000 418.400000
10389 15168 10390 1 109.50000 418.400000
3409 15169 4575 1 109.50000 418.400000
3409 15169 4601 1 109.50000 418.400000
3409 15169 7710 1 109.50000 418.400000
4575 15169 4601 1 109.50000 418.400000
4575 15169 7710 1 109.50000 418.400000
4601 15169 7710 1 109.50000 418.400000
7478 15170 9175 1 109.50000 418.400000
7478 15170 9722 1 109.50000 418.400000
7478 15170 10181 1 109.50000 418.400000
9175 15170 9722 1 109.50000 418.400000
9175 15170 10181 1 109.50000 418.400000
9722 15170 10181 1 109.50000 418.400000
4274 15171 5874 1 109.50000 418.400000
4274 15171 9073 1 109.50000 418.400000
4274 15171 10090 1 109.50000 418.400000
5874 15171 9073 1 109.50000 418.400000
5874 15171 10090 1 109.50000 418.400000
9073 15171 10090 1 109.50000 418.400000
3631 15172 6965 1 109.50000 418.400000
3631 15172 6967 1 109.50000 418.400000
3631 15172 10391 1 109.50000 418.400000
6965 15172 6967 1 109.50000 418.400000
6965 15172 10391 1 109.50000 418.400000
6967 15172 10391 1 109.50000 418.400000
9292 15173 10392 1 109.50000 418.400000
9292 15173 10393 1 109.50000 418.400000
9292 15173 10394 1 109.50000 418.400000
10392 15173 10393 1 109.50000 418.400000
10392 15173 10394 1 109.50000 418.400000
10393 15173 10394 1 109.50000 418.400000
2849 15174 4523 1 109.50000 418.400000
2849 15174 9572 1 109.50000 418.400000
2849 15174 10254 1 109.50000 418.400000
4523 15174 9572 1 109.50000 418.400000
4523 15174 10254 1 109.50000 418.400000
9572 15174 10254 1 109.50000 418.400000
504 15175 4868 1 109.50000 418.400000
504 15175 10203 1 109.50000 418.400000
504 15175 10395 1 109.50000 418.400000
4868 15175 10203 1 109.50000 418.400000
4868 15175 10395 1 109.50000 418.400000
10203 15175 10395 1 109.50000 418.400000
5148 15176 9489 1 109.50000 418.400000
5148 15176 9896 1 109.50000 418.400000
5148 15176 10335 1 109.50000 418.400000
9489 15176 9896 1 109.50000 418.400000
9489 15176 10335 1 109.50000 418.400000
9896 15176 10335 1 109.50000 418.400000
3925 15177 7656 1 109.50000 418.400000
3925 15177 9640 1 109.50000 418.400000
3925 15177 9975 1 109.50000 418.400000
7656 15177 9640 1 109.50000 418.400000
7656 15177 9975 1 109.50000 418.400000
9640 15177 9975 1 109.50000 418.400000
2439 15178 8155 1 109.50000 418.400000
2439 15178 10027 1 109.50000 418.400000
2439 15178 10396 1 109.50000 418.400000
8155 15178 10027 1 109.50000 418.400000
8155 15178 10396 1 109.50000 418.400000
10027 15178 10396 1 109.50000 418.400000
1412 15179 2958 1 109.50000 418.400000
1412 15179 3650 1 109.50000 418.400000
1412 15179 10398 1 109.50000 418.400000
2958 15179 3650 1 109.50000 418.400000
2958 15179 10398 1 109.50000 418.400000
3650 15179 10398 1 109.50000 418.400000
1460 15180 6112 1 109.50000 418.400000
1460 15180 9170 1 109.50000 418.400000
1460 15180 10263 1 109.50000 418.400000
6112 15180 9170 1 109.50000 418.400000
6112 15180 10263 1 109.50000 418.400000
9170 15180 10263 1 109.50000 418.400000
8722 15181 9188 1 109.50000 418.400000
8722 15181 9225 1 109.50000 418.400000
8722 15181 10399 1 109.50000 418.400000
9188 15181 9225 1 109.50000 418.400000
9188 15181 10399 1 109.50000 418.400000
9225 15181 10399 1 109.50000 418.400000
1394 15182 2116 1 109.50000 418.400000
1394 15182 7107 1 109.50000 418.400000
1394 15182 10400 1 109.50000 418.400000
2116 15182 7107 1 109.50000 418.400000
2116 15182 10400 1 109.50000 418.400000
7107 15182 10400 1 109.50000 418.400000
1354 15183 2861 1 109.50000 418.400000
1354 15183 7269 1 109.50000 418.400000
1354 15183 7270 1 109.50000 418.400000
2861 15183 7269 1 109.50000 418.400000
2861 15183 7270 1 109.50000 418.400000
7269 15183 7270 1 109.50000 418.400000
5632 15184 7303 1 109.50000 418.400000
5632 15184 10214 1 109.50000 418.400000
5632 15184 10402 1 109.50000 418.400000
7303 15184 10214 1 109.50000 418.400000
7303 15184 10402 1 109.50000 418.400000
10214 15184 10402 1 109.50000 418.400000
4039 15185 9049 1 109.50000 418.400000
4039 15185 10403 1 109.50000 418.400000
4039 15185 10404 1 109.50000 418.400000
9049 15185 10403 1 109.50000 418.400000
9049 15185 10404 1 109.50000 418.400000
10403 15185 10404 1 109.50000 418.400000
1859 15186 4161 1 109.50000 418.400000
1859 15186 10405 1 109.50000 418.400000
1859 15186 10406 1 109.50000 418.400000
4161 15186 10405 1 109.50000 418.400000
4161 15186 10406 1 109.50000 418.400000
10405 15186 10406 1 109.50000 418.400000
1640 15187 8497 1 109.50000 418.400000
1640 15187 8499 1 109.50000 418.400000
1640 15187 8500 1 109.50000 418.400000
8497 15187 8499 1 109.50000 418.400000
8497 15187 8500 1 109.50000 418.400000
8499 15187 8500 1 109.50000 418.400000
4086 15188 5118 1 109.50000 418.400000
4086 15188 10015 1 109.50000 418.400000
4086 15188 10408 1 109.50000 418.400000
5118 15188 10015 1 109.50000 418.400000
5118 15188 10408 1 109.50000 418.400000
10015 15188 10408 1 109.50000 418.400000
2135 15189 4552 1 109.50000 418.400000
2135 15189 8844 1 109.50000 418.400000
2135 15189 10409 1 109.50000 418.400000
4552 15189 8844 1 109.50000 418.400000
4552 15189 10409 1 109.50000 418.400000
8844 15189 10409 1 109.50000 418.400000
2761 15190 6029 1 109.50000 418.400000
2761 15190 10250 1 109.50000 418.400000
2761 15190 10410 1 109.50000 418.400000
6029 15190 10250 1 109.50000 418.400000
6029 15190 10410 1 109.50000 418.400000
10250 15190 10410 1 109.50000 418.400000
4077 15191 6463 1 109.50000 418.400000
4077 15191 8808 1 109.50000 418.400000
4077 15191 10411 1 109.50000 418.400000
6463 15191 8808 1 109.50000 418.400000
6463 15191 10411 1 109.50000 418.400000
8808 15191 10411 1 109.50000 418.400000
201 15192 7062 1 109.50000 418.400000
201 15192 8825 1 109.50000 418.400000
201 15192 10412 1 109.50000 418.400000
7062 15192 8825 1 109.50000 418.400000
7062 15192 10412 1 109.50000 418.400000
8825 15192 10412 1 109.50000 418.400000
4185 15193 10413 1 109.50000 418.400000
4185 15193 10414 1 109.50000 418.400000
4185 15193 11179 1 109.50000 418.400000
10413 15193 10414 1 109.50000 418.400000
10413 15193 11179 1 109.50000 418.400000
10414 15193 11179 1 109.50000 418.400000
4631 15194 10153 1 109.50000 418.400000
4631 15194 10410 1 109.50000 418.400000
4631 15194 10415 1 109.50000 418.400000
10153 15194 10410 1 109.50000 418.400000
10153 15194 10415 1 109.50000 418.400000
10410 15194 10415 1 109.50000 418.400000
1248 15195 5915 1 109.50000 418.400000
1248 15195 7822 1 109.50000 418.400000
1248 15195 10232 1 109.50000 418.400000
5915 15195 7822 1 109.50000 418.400000
5915 15195 10232 1 109.50000 418.400000
7822 15195 10232 1 109.50000 418.400000
443 15196 2048 1 109.50000 418.400000
443 15196 10416 1 109.50000 418.400000
443 15196 10417 1 109.50000 418.400000
2048 15196 10416 1 109.50000 418.400000
2048 15196 10417 1 109.50000 418.400000
10416 15196 10417 1 109.50000 418.400000
803 15197 5870 1 109.50000 418.400000
803 15197 10271 1 109.50000 418.400000
803 15197 10418 1 109.50000 418.400000
5870 15197 10271 1 109.50000 418.400000
5870 15197 10418 1 109.50000 418.400000
10271 15197 10418 1 109.50000 418.400000
2472 15198 2867 1 109.50000 418.400000
2472 15198 4782 1 109.50000 418.400000
2472 15198 8659 1 109.50000 418.400000
2867 15198 4782 1 109.50000 418.400000
2867 15198 8659 1 109.50000 418.400000
4782 15198 8659 1 109.50000 418.400000
3620 15199 10408 1 109.50000 418.400000
3620 15199 10419 1 109.50000 418.400000
3620 15199 10420 1 109.50000 418.400000
10408 15199 10419 1 109.50000 418.400000
10408 15199 10420 1 109.50000 418.400000
10419 15199 10420 1 109.50000 418.400000
5272 15200 7043 1 109.50000 418.400000
5272 15200 9132 1 109.50000 418.400000
5272 15200 10421 1 109.50000 418.400000
7043 15200 9132 1 109.50000 418.400000
7043 15200 10421 1 109.50000 418.400000
9132 15200 10421 1 109.50000 418.400000
617 15201 5697 1 109.50000 418.400000
617 15201 8682 1 109.50000 418.400000
617 15201 9777 1 109.50000 418.400000
5697 15201 8682 1 109.50000 418.400000
5697 15201 9777 1 109.50000 418.400000
8682 15201 9777 1 109.50000 418.400000
4097 15202 5016 1 109.50000 418.400000
4097 15202 7667 1 109.50000 418.400000
4097 15202 10358 1 109.50000 418.400000
5016 15202 7667 1 109.50000 418.400000
5016 15202 10358 1 109.50000 418.400000
7667 15202 10358 1 109.50000 418.400000
1036 15203 1037 1 109.50000 418.400000
1036 15203 1038 1 109.50000 418.400000
1036 15203 1039 1 109.50000 418.400000
1037 15203 1038 1 109.50000 418.400000
1037 15203 1039 1 109.50000 418.400000
1038 15203 1039 1 109.50000 418.400000
5378 15204 8507 1 109.50000 418.400000
5378 15204 10311 1 109.50000 418.400000
5378 15204 10423 1 109.50000 418.400000
8507 15204 10311 1 109.50000 418.400000
8507 15204 10423 1 109.50000 418.400000
10311 15204 10423 1 109.50000 418.400000
3046 15205 5696 1 109.50000 418.400000
3046 15205 9380 1 109.50000 418.400000
3046 15205 10167 1 109.50000 418.400000
5696 15205 9380 1 109.50000 418.400000
5696 15205 10167 1 109.50000 418.400000
9380 15205 10167 1 109.50000 418.400000
885 15206 7581 1 109.50000 418.400000
885 15206 10424 1 109.50000 418.400000
885 15206 10822 1 109.50000 418.400000
7581 15206 10424 1 109.50000 418.400000
7581 15206 10822 1 109.50000 418.400000
10424 15206 10822 1 109.50000 418.400000
5189 15207 7036 1 109.50000 418.400000
5189 15207 9053 1 109.50000 418.400000
5189 15207 10425 1 109.50000 418.400000
7036 15207 9053 1 109.50000 418.400000
7036 15207 10425 1 109.50000 418.400000
9053 15207 10425 1 109.50000 418.400000
6554 15208 7156 1 109.50000 418.400000
6554 15208 9433 1 109.50000 418.400000
6554 15208 10426 1 109.50000 418.400000
7156 15208 9433 1 109.50000 418.400000
7156 15208 10426 1 109.50000 418.400000
9433 15208 10426 1 109.50000 418.400000
3404 15209 8950 1 109.50000 418.400000
3404 15209 10125 1 109.50000 418.400000
3404 15209 10278 1 109.50000 418.400000
8950 15209 10125 1 109.50000 418.400000
8950 15209 10278 1 109.50000 418.400000
10125 15209 10278 1 109.50000 418.400000
5474 15210 9180 1 109.50000 418.400000
5474 15210 10291 1 109.50000 418.400000
5474 15210 10427 1 109.50000 418.400000
9180 15210 10291 1 109.50000 418.400000
9180 15210 10427 1 109.50000 418.400000
10291 15210 10427 1 109.50000 418.400000
5180 15211 9022 1 109.50000 418.400000
5180 15211 10428 1 109.50000 418.400000
5180 15211 10429 1 109.50000 418.400000
9022 15211 10428 1 109.50000 418.400000
9022 15211 10429 1 109.50000 418.400000
10428 15211 10429 1 109.50000 418.400000
9417 15212 10345 1 109.50000 418.400000
9417 15212 10430 1 109.50000 418.400000
9417 15212 10431 1 109.50000 418.400000
10345 15212 10430 1 109.50000 418.400000
10345 15212 10431 1 109.50000 418.400000
10430 15212 10431 1 109.50000 418.400000
4628 15213 7681 1 109.50000 418.400000
4628 15213 8570 1 109.50000 418.400000
4628 15213 10432 1 109.50000 418.400000
7681 15213 8570 1 109.50000 418.400000
7681 15213 10432 1 109.50000 418.400000
8570 15213 10432 1 109.50000 418.400000
5993 15214 6983 1 109.50000 418.400000
5993 15214 9720 1 109.50000 418.400000
5993 15214 9906 1 109.50000 418.400000
6983 15214 9720 1 109.50000 418.400000
6983 15214 9906 1 109.50000 418.400000
9720 15214 9906 1 109.50000 418.400000
6435 15215 6437 1 109.50000 418.400000
6435 15215 8391 1 109.50000 418.400000
6435 15215 11291 1 109.50000 418.400000
6437 15215 8391 1 109.50000 418.400000
6437 15215 11291 1 109.50000 418.400000
8391 15215 11291 1 109.50000 418.400000
1480 15216 2583 1 109.50000 418.400000
1480 15216 2585 1 109.50000 418.400000
1480 15216 8778 1 109.50000 418.400000
2583 15216 2585 1 109.50000 418.400000
2583 15216 8778 1 109.50000 418.400000
2585 15216 8778 1 109.50000 418.400000
6610 15217 8462 1 109.50000 418.400000
6610 15217 8587 1 109.50000 418.400000
6610 15217 9455 1 109.50000 418.400000
8462 15217 8587 1 109.50000 418.400000
8462 15217 9455 1 109.50000 418.400000
8587 15217 9455 1 109.50000 418.400000
45 15218 2200 1 109.50000 418.400000
45 15218 9713 1 109.50000 418.400000
45 15218 10433 1 109.50000 418.400000
2200 15218 9713 1 109.50000 418.400000
2200 15218 10433 1 109.50000 418.400000
9713 15218 10433 1 109.50000 418.400000
4815 15219 5747 1 109.50000 418.400000
4815 15219 6027 1 109.50000 418.400000
4815 15219 8172 1 109.50000 418.400000
5747 15219 6027 1 109.50000 418.400000
5747 15219 8172 1 109.50000 418.400000
6027 15219 8172 1 109.50000 418.400000
1668 15220 7704 1 109.50000 418.400000
1668 15220 7820 1 109.50000 418.400000
1668 15220 10434 1 109.50000 418.400000
7704 15220 7820 1 109.50000 418.400000
7704 15220 10434 1 109.50000 418.400000
7820 15220 10434 1 109.50000 418.400000
1045 15221 4252 1 109.50000 418.400000
1045 15221 8754 1 109.50000 418.400000
1045 15221 10421 1 109.50000 418.400000
4252 15221 8754 1 109.50000 418.400000
4252 15221 10421 1 109.50000 418.400000
8754 15221 10421 1 109.50000 418.400000
2459 15222 5327 1 109.50000 418.400000
2459 15222 7046 1 109.50000 418.400000
2459 15222 9209 1 109.50000 418.400000
5327 15222 7046 1 109.50000 418.400000
5327 15222 9209 1 109.50000 418.400000
7046 15222 9209 1 109.50000 418.400000
3945 15223 5003 1 109.50000 418.400000
3945 15223 6765 1 109.50000 418.400000
3945 15223 6767 1 109.50000 418.400000
5003 15223 6765 1 109.50000 418.400000
5003 15223 6767 1 109.50000 418.400000
6765 15223 6767 1 109.50000 418.400000
10437 15224 10438 1 109.50000 418.400000
10437 15224 10439 1 109.50000 418.400000
10437 15224 10440 1 109.50000 418.400000
10438 15224 10439 1 109.50000 418.400000
10438 15224 10440 1 109.50000 418.400000
10439 15224 10440 1 109.50000 418.400000
4447 15225 7550 1 109.50000 418.400000
4447 15225 9222 1 109.50000 418.400000
4447 15225 10443 1 109.50000 418.400000
7550 15225 9222 1 109.50000 418.400000
7550 15225 10443 1 109.50000 418.400000
9222 15225 10443 1 109.50000 418.400000
7385 15226 7751 1 109.50000 418.400000
7385 15226 10444 1 109.50000 418.400000
7385 15226 10445 1 109.50000 418.400000
7751 15226 10444 1 109.50000 418.400000
7751 15226 10445 1 109.50000 418.400000
10444 15226 10445 1 109.50000 418.400000
873 15227 5011 1 109.50000 418.400000
873 15227 9404 1 109.50000 418.400000
873 15227 10446 1 109.50000 418.400000
5011 15227 9404 1 109.50000 418.400000
5011 15227 10446 1 109.50000 418.400000
9404 15227 10446 1 109.50000 418.400000
4388 15228 8085 1 109.50000 418.400000
4388 15228 8920 1 109.50000 418.400000
4388 15228 10447 1 109.50000 418.400000
8085 15228 8920 1 109.50000 418.400000
8085 15228 10447 1 109.50000 418.400000
8920 15228 10447 1 109.50000 418.400000
774 15229 3430 1 109.50000 418.400000
774 15229 5184 1 109.50000 418.400000
774 15229 10448 1 109.50000 418.400000
3430 15229 5184 1 109.50000 418.400000
3430 15229 10448 1 109.50000 418.400000
5184 15229 10448 1 109.50000 418.400000
751 15230 9597 1 109.50000 418.400000
751 15230 10449 1 109.50000 418.400000
751 15230 10450 1 109.50000 418.400000
9597 15230 10449 1 109.50000 418.400000
9597 15230 10450 1 109.50000 418.400000
10449 15230 10450 1 109.50000 418.400000
7540 15231 10451 1 109.50000 418.400000
7540 15231 10452 1 109.50000 418.400000
7540 15231 10453 1 109.50000 418.400000
10451 15231 10452 1 109.50000 418.400000
10451 15231 10453 1 109.50000 418.400000
10452 15231 10453 1 109.50000 418.400000
979 15232 2367 1 109.50000 418.400000
979 15232 6342 1 109.50000 418.400000
979 15232 7756 1 109.50000 418.400000
2367 15232 6342 1 109.50000 418.400000
2367 15232 7756 1 109.50000 418.400000
6342 15232 7756 1 109.50000 418.400000
2414 15233 9204 1 109.50000 418.400000
2414 15233 10454 1 109.50000 418.400000
2414 15233 10455 1 109.50000 418.400000
9204 15233 10454 1 109.50000 418.400000
9204 15233 10455 1 109.50000 418.400000
10454 15233 10455 1 109.50000 418.400000
1054 15234 7930 1 109.50000 418.400000
1054 15234 9167 1 109.50000 418.400000
1054 15234 9440 1 109.50000 418.400000
7930 15234 9167 1 109.50000 418.400000
7930 15234 9440 1 109.50000 418.400000
9167 15234 9440 1 109.50000 418.400000
3124 15235 7380 1 109.50000 418.400000
3124 15235 8575 1 109.50000 418.400000
3124 15235 10456 1 109.50000 418.400000
7380 15235 8575 1 109.50000 418.400000
7380 15235 10456 1 109.50000 418.400000
8575 15235 10456 1 109.50000 418.400000
5143 15236 5354 1 109.50000 418.400000
5143 15236 7488 1 109.50000 418.400000
5143 15236 10457 1 109.50000 418.400000
5354 15236 7488 1 109.50000 418.400000
5354 15236 10457 1 109.50000 418.400000
7488 15236 10457 1 109.50000 418.400000
5639 15237 9068 1 109.50000 418.400000
5639 15237 9069 1 109.50000 418.400000
5639 15237 10458 1 109.50000 418.400000
9068 15237 9069 1 109.50000 418.400000
9068 15237 10458 1 109.50000 418.400000
9069 15237 10458 1 109.50000 418.400000
5967 15238 8791 1 109.50000 418.400000
5967 15238 9659 1 109.50000 418.400000
5967 15238 10460 1 109.50000 418.400000
8791 15238 9659 1 109.50000 418.400000
8791 15238 10460 1 109.50000 418.400000
9659 15238 10460 1 109.50000 418.400000
1435 15239 4370 1 109.50000 418.400000
1435 15239 6985 1 109.50000 418.400000
1435 15239 7675 1 109.50000 418.400000
4370 15239 6985 1 109.50000 418.400000
4370 15239 7675 1 109.50000 418.400000
6985 15239 7675 1 109.50000 418.400000
1009 15240 5458 1 109.50000 418.400000
1009 15240 7455 1 109.50000 418.400000
1009 15240 10464 1 109.50000 418.400000
5458 15240 7455 1 109.50000 418.400000
5458 15240 10464 1 109.50000 418.400000
7455 15240 10464 1 109.50000 418.400000
407 15241 408 1 109.50000 418.400000
407 15241 1352 1 109.50000 418.400000
407 15241 8278 1 109.50000 418.400000
408 15241 1352 1 109.50000 418.400000
408 15241 8278 1 109.50000 418.400000
1352 15241 8278 1 109.50000 418.400000
4070 15242 8182 1 109.50000 418.400000
4070 15242 8643 1 109.50000 418.400000
4070 15242 10465 1 109.50000 418.400000
8182 15242 8643 1 109.50000 418.400000
8182 15242 10465 1 109.50000 418.400000
8643 15242 10465 1 109.50000 418.400000
5522 15243 10466 1 109.50000 418.400000
5522 15243 10467 1 109.50000 418.400000
5522 15243 10741 1 109.50000 418.400000
10466 15243 10467 1 109.50000 418.400000
10466 15243 10741 1 109.50000 418.400000
10467 15243 10741 1 109.50000 418.400000
7942 15244 8582 1 109.50000 418.400000
7942 15244 10438 1 109.50000 418.400000
7942 15244 10468 1 109.50000 418.400000
8582 15244 10438 1 109.50000 418.400000
8582 15244 10468 1 109.50000 418.400000
10438 15244 10468 1 109.50000 418.400000
9346 15245 9532 1 109.50000 418.400000
9346 15245 9533 1 109.50000 418.400000
9346 15245 10469 1 109.50000 418.400000
9532 15245 9533 1 109.50000 418.400000
9532 15245 10469 1 109.50000 418.400000
9533 15245 10469 1 109.50000 418.400000
321 15246 3730 1 109.50000 418.400000
321 15246 4275 1 109.50000 418.400000
321 15246 10383 1 109.50000 418.400000
3730 15246 4275 1 109.50000 418.400000
3730 15246 10383 1 109.50000 418.400000
4275 15246 10383 1 109.50000 418.400000
2280 15247 6573 1 109.50000 418.400000
2280 15247 8418 1 109.50000 418.400000
2280 15247 10470 1 109.50000 418.400000
6573 15247 8418 1 109.50000 418.400000
6573 15247 10470 1 109.50000 418.400000
8418 15247 10470 1 109.50000 418.400000
1234 15248 5807 1 109.50000 418.400000
1234 15248 10471 1 109.50000 418.400000
1234 15248 10472 1 109.50000 418.400000
5807 15248 10471 1 109.50000 418.400000
5807 15248 10472 1 109.50000 418.400000
10471 15248 10472 1 109.50000 418.400000
281 15249 7161 1 109.50000 418.400000
281 15249 10473 1 109.50000 418.400000
281 15249 10474 1 109.50000 418.400000
7161 15249 10473 1 109.50000 418.400000
7161 15249 10474 1 109.50000 418.400000
10473 15249 10474 1 109.50000 418.400000
676 15250 1921 1 109.50000 418.400000
676 15250 10475 1 109.50000 418.400000
676 15250 11282 1 109.50000 418.400000
1921 15250 10475 1 109.50000 418.400000
1921 15250 11282 1 109.50000 418.400000
10475 15250 11282 1 109.50000 418.400000
1010 15251 2218 1 109.50000 418.400000
1010 15251 6465 1 109.50000 418.400000
1010 15251 10476 1 109.50000 418.400000
2218 15251 6465 1 109.50000 418.400000
2218 15251 10476 1 109.50000 418.400000
6465 15251 10476 1 109.50000 418.400000
6728 15252 8309 1 109.50000 418.400000
6728 15252 8770 1 109.50000 418.400000
6728 15252 9422 1 109.50000 418.400000
8309 15252 8770 1 109.50000 418.400000
8309 15252 9422 1 109.50000 418.400000
8770 15252 9422 1 109.50000 418.400000
3378 15253 5391 1 109.50000 418.400000
3378 15253 9089 1 109.50000 418.400000
3378 15253 10477 1 109.50000 418.400000
5391 15253 9089 1 109.50000 418.400000
5391 15253 10477 1 109.50000 418.400000
9089 15253 10477 1 109.50000 418.400000
991 15254 5441 1 109.50000 418.400000
991 15254 8962 1 109.50000 418.400000
991 15254 11189 1 109.50000 418.400000
5441 15254 8962 1 109.50000 418.400000
5441 15254 11189 1 109.50000 418.400000
8962 15254 11189 1 109.50000 418.400000
2213 15255 2727 1 109.50000 418.400000
2213 15255 8115 1 109.50000 418.400000
2213 15255 10478 1 109.50000 418.400000
2727 15255 8115 1 109.50000 418.400000
2727 15255 10478 1 109.50000 418.400000
8115 15255 10478 1 109.50000 418.400000
5543 15256 6382 1 109.50000 418.400000
5543 15256 9653 1 109.50000 418.400000
5543 15256 10479 1 109.50000 418.400000
6382 15256 9653 1 109.50000 418.400000
6382 15256 10479 1 109.50000 418.400000
9653 15256 10479 1 109.50000 418.400000
4451 15257 5832 1 109.50000 418.400000
4451 15257 6474 1 109.50000 418.400000
4451 15257 7854 1 109.50000 418.400000
5832 15257 6474 1 109.50000 418.400000
5832 15257 7854 1 109.50000 418.400000
6474 15257 7854 1 109.50000 418.400000
2543 15258 2638 1 109.50000 418.400000
2543 15258 8981 1 109.50000 418.400000
2543 15258 10072 1 109.50000 418.400000
2638 15258 8981 1 109.50000 418.400000
2638 15258 10072 1 109.50000 418.400000
8981 15258 10072 1 109.50000 418.400000
5791 15259 5792 1 109.50000 418.400000
5791 15259 5977 1 109.50000 418.400000
5791 15259 10220 1 109.50000 418.400000
5792 15259 5977 1 109.50000 418.400000
5792 15259 10220 1 109.50000 418.400000
5977 15259 10220 1 109.50000 418.400000
312 15260 9486 1 109.50000 418.400000
312 15260 10480 1 109.50000 418.400000
312 15260 10481 1 109.50000 418.400000
9486 15260 10480 1 109.50000 418.400000
9486 15260 10481 1 109.50000 418.400000
10480 15260 10481 1 109.50000 418.400000
1834 15261 3024 1 109.50000 418.400000
1834 15261 8442 1 109.50000 418.400000
1834 15261 10482 1 109.50000 418.400000
3024 15261 8442 1 109.50000 418.400000
3024 15261 10482 1 109.50000 418.400000
8442 15261 10482 1 109.50000 418.400000
2323 15262 6577 1 109.50000 418.400000
2323 15262 7918 1 109.50000 418.400000
2323 15262 10483 1 109.50000 418.400000
6577 15262 7918 1 109.50000 418.400000
6577 15262 10483 1 109.50000 418.400000
7918 15262 10483 1 109.50000 418.400000
1213 15263 2179 1 109.50000 418.400000
1213 15263 4972 1 109.50000 418.400000
1213 15263 10484 1 109.50000 418.400000
2179 15263 4972 1 109.50000 418.400000
2179 15263 10484 1 109.50000 418.400000
4972 15263 10484 1 109.50000 418.400000
6623 15264 9798 1 109.50000 418.400000
6623 15264 10407 1 109.50000 418.400000
6623 15264 10485 1 109.50000 418.400000
9798 15264 10407 1 109.50000 418.400000
9798 15264 10485 1 109.50000 418.400000
10407 15264 10485 1 109.50000 418.400000
7574 15265 8040 1 109.50000 418.400000
7574 15265 9946 1 109.50000 418.400000
7574 15265 10486 1 109.50000 418.400000
8040 15265 9946 1 109.50000 418.400000
8040 15265 10486 1 109.50000 418.400000
9946 15265 10486 1 109.50000 418.400000
4676 15266 4677 1 109.50000 418.400000
4676 15266 6975 1 109.50000 418.400000
4676 15266 8536 1 109.50000 418.400000
4677 15266 6975 1 109.50000 418.400000
4677 15266 8536 1 109.50000 418.400000
6975 15266 8536 1 109.50000 418.400000
1856 15267 8053 1 109.50000 418.400000
1856 15267 10487 1 109.50000 418.400000
1856 15267 10488 1 109.50000 418.400000
8053 15267 10487 1 109.50000 418.400000
8053 15267 10488 1 109.50000 418.400000
10487 15267 10488 1 109.50000 418.400000
2068 15268 4919 1 109.50000 418.400000
2068 15268 10489 1 109.50000 418.400000
2068 15268 10490 1 109.50000 418.400000
4919 15268 10489 1 109.50000 418.400000
4919 15268 10490 1 109.50000 418.400000
10489 15268 10490 1 109.50000 418.400000
3879 15269 7170 1 109.50000 418.400000
3879 15269 10491 1 109.50000 418.400000
3879 15269 11147 1 109.50000 418.400000
7170 15269 10491 1 109.50000 418.400000
7170 15269 11147 1 109.50000 418.400000
10491 15269 11147 1 109.50000 418.400000
5264 15270 5804 1 109.50000 418.400000
5264 15270 5826 1 109.50000 418.400000
5264 15270 9908 1 109.50000 418.400000
5804 15270 5826 1 109.50000 418.400000
5804 15270 9908 1 109.50000 418.400000
5826 15270 9908 1 109.50000 418.400000
5301 15271 7081 1 109.50000 418.400000
5301 15271 7306 1 109.50000 418.400000
5301 15271 10493 1 109.50000 418.400000
7081 15271 7306 1 109.50000 418.400000
7081 15271 10493 1 109.50000 418.400000
7306 15271 10493 1 109.50000 418.400000
1375 15272 4268 1 109.50000 418.400000
1375 15272 4314 1 109.50000 418.400000
1375 15272 6629 1 109.50000 418.400000
4268 15272 4314 1 109.50000 418.400000
4268 15272 6629 1 109.50000 418.400000
4314 15272 6629 1 109.50000 418.400000
6896 15273 6897 1 109.50000 418.400000
6896 15273 8546 1 109.50000 418.400000
6896 15273 9406 1 109.50000 418.400000
6897 15273 8546 1 109.50000 418.400000
6897 15273 9406 1 109.50000 418.400000
8546 15273 9406 1 109.50000 418.400000
7652 15274 9545 1 109.50000 418.400000
7652 15274 9838 1 109.50000 418.400000
7652 15274 10494 1 109.50000 418.400000
9545 15274 9838 1 109.50000 418.400000
9545 15274 10494 1 109.50000 418.400000
9838 15274 10494 1 109.50000 418.400000
6229 15275 9118 1 109.50000 418.400000
6229 15275 9119 1 109.50000 418.400000
6229 15275 10495 1 109.50000 418.400000
9118 15275 9119 1 109.50000 418.400000
9118 15275 10495 1 109.50000 418.400000
9119 15275 10495 1 109.50000 418.400000
3910 15276 8849 1 109.50000 418.400000
3910 15276 9763 1 109.50000 418.400000
3910 15276 10496 1 109.50000 418.400000
8849 15276 9763 1 109.50000 418.400000
8849 15276 10496 1 109.50000 418.400000
9763 15276 10496 1 109.50000 418.400000
1059 15277 6523 1 109.50000 418.400000
1059 15277 9526 1 109.50000 418.400000
1059 15277 10497 1 109.50000 418.400000
6523 15277 9526 1 109.50000 418.400000
6523 15277 10497 1 109.50000 418.400000
9526 15277 10497 1 109.50000 418.400000
921 15278 8669 1 109.50000 418.400000
921 15278 8758 1 109.50000 418.400000
921 15278 10498 1 109.50000 418.400000
8669 15278 8758 1 109.50000 418.400000
8669 15278 10498 1 109.50000 418.400000
8758 15278 10498 1 109.50000 418.400000
60 15279 7746 1 109.50000 418.400000
60 15279 10428 1 109.50000 418.400000
60 15279 10499 1 109.50000 418.400000
7746 15279 10428 1 109.50000 418.400000
7746 15279 10499 1 109.50000 418.400000
10428 15279 10499 1 109.50000 418.400000
4580 15280 6110 1 109.50000 418.400000
4580 15280 8265 1 109.50000 418.400000
4580 15280 10500 1 109.50000 418.400000
6110 15280 8265 1 109.50000 418.400000
6110 15280 10500 1 109.50000 418.400000
8265 15280 10500 1 109.50000 418.400000
880 15281 5678 1 109.50000 418.400000
880 15281 6347 1 109.50000 418.400000
880 15281 7992 1 109.50000 418.400000
5678 15281 6347 1 109.50000 418.400000
5678 15281 7992 1 109.50000 418.400000
6347 15281 7992 1 109.50000 418.400000
1115 15282 10150 1 109.50000 418.400000
1115 15282 10207 1 109.50000 418.400000
1115 15282 10501 1 109.50000 418.400000
10150 15282 10207 1 109.50000 418.400000
10150 15282 10501 1 109.50000 418.400000
10207 15282 10501 1 109.50000 418.400000
3967 15283 7502 1 109.50000 418.400000
3967 15283 8453 1 109.50000 418.400000
3967 15283 10289 1 109.50000 418.400000
7502 15283 8453 1 109.50000 418.400000
7502 15283 10289 1 109.50000 418.400000
8453 15283 10289 1 109.50000 418.400000
908 15284 1924 1 109.50000 418.400000
908 15284 1925 1 109.50000 418.400000
908 15284 3846 1 109.50000 418.400000
1924 15284 1925 1 109.50000 418.400000
1924 15284 3846 1 109.50000 418.400000
1925 15284 3846 1 109.50000 418.400000
5557 15285 8202 1 109.50000 418.400000
5557 15285 9729 1 109.50000 418.400000
5557 15285 9898 1 109.50000 418.400000
8202 15285 9729 1 109.50000 418.400000
8202 15285 9898 1 109.50000 418.400000
9729 15285 9898 1 109.50000 418.400000
1982 15286 6969 1 109.50000 418.400000
1982 15286 10502 1 109.50000 418.400000
1982 15286 10503 1 109.50000 418.400000
6969 15286 10502 1 109.50000 418.400000
6969 15286 10503 1 109.50000 418.400000
10502 15286 10503 1 109.50000 418.400000
3692 15287 7804 1 109.50000 418.400000
3692 15287 8027 1 109.50000 418.400000
3692 15287 10451 1 109.50000 418.400000
7804 15287 8027 1 109.50000 418.400000
7804 15287 10451 1 109.50000 418.400000
8027 15287 10451 1 109.50000 418.400000
2692 15288 5059 1 109.50000 418.400000
2692 15288 5061 1 109.50000 418.400000
2692 15288 10504 1 109.50000 418.400000
5059 15288 5061 1 109.50000 418.400000
5059 15288 10504 1 109.50000 418.400000
5061 15288 10504 1 109.50000 418.400000
384 15289 9948 1 109.50000 418.400000
384 15289 10505 1 109.50000 418.400000
384 15289 10506 1 109.50000 418.400000
9948 15289 10505 1 109.50000 418.400000
9948 15289 10506 1 109.50000 418.400000
10505 15289 10506 1 109.50000 418.400000
5306 15290 9550 1 109.50000 418.400000
5306 15290 10166 1 109.50000 418.400000
5306 15290 10507 1 109.50000 418.400000
9550 15290 10166 1 109.50000 418.400000
9550 15290 10507 1 109.50000 418.400000
10166 15290 10507 1 109.50000 418.400000
851 15291 1048 1 109.50000 418.400000
851 15291 7719 1 109.50000 418.400000
851 15291 10331 1 109.50000 418.400000
1048 15291 7719 1 109.50000 418.400000
1048 15291 10331 1 109.50000 418.400000
7719 15291 10331 1 109.50000 418.400000
1711 15292 1712 1 109.50000 418.400000
1711 15292 10508 1 109.50000 418.400000
1711 15292 11216 1 109.50000 418.400000
1712 15292 10508 1 109.50000 418.400000
1712 15292 11216 1 109.50000 418.400000
10508 15292 11216 1 109.50000 418.400000
2167 15293 3141 1 109.50000 418.400000
2167 15293 6090 1 109.50000 418.400000
2167 15293 6324 1 109.50000 418.400000
3141 15293 6090 1 109.50000 418.400000
3141 15293 6324 1 109.50000 418.400000
6090 15293 6324 1 109.50000 418.400000
10006 15294 10509 1 109.50000 418.400000
10006 15294 10510 1 109.50000 418.400000
10006 15294 10511 1 109.50000 418.400000
10509 15294 10510 1 109.50000 418.400000
10509 15294 10511 1 109.50000 418.400000
10510 15294 10511 1 109.50000 418.400000
916 15295 956 1 109.50000 418.400000
916 15295 6467 1 109.50000 418.400000
916 15295 9614 1 109.50000 418.400000
956 15295 6467 1 109.50000 418.400000
956 15295 9614 1 109.50000 418.400000
6467 15295 9614 1 109.50000 418.400000
3377 15296 4953 1 109.50000 418.400000
3377 15296 6929 1 109.50000 418.400000
3377 15296 10512 1 109.50000 418.400000
4953 15296 6929 1 109.50000 418.400000
4953 15296 10512 1 109.50000 418.400000
6929 15296 10512 1 109.50000 418.400000
190 15297 1003 1 109.50000 418.400000
190 15297 3612 1 109.50000 418.400000
190 15297 8408 1 109.50000 418.400000
1003 15297 3612 1 109.50000 418.400000
1003 15297 8408 1 109.50000 418.400000
3612 15297 8408 1 109.50000 418.400000
2860 15298 8565 1 109.50000 418.400000
2860 15298 10515 1 109.50000 418.400000
2860 15298 10516 1 109.50000 418.400000
8565 15298 10515 1 109.50000 418.400000
8565 15298 10516 1 109.50000 418.400000
10515 15298 10516 1 109.50000 418.400000
522 15299 6758 1 109.50000 418.400000
522 15299 7316 1 109.50000 418.400000
522 15299 10517 1 109.50000 418.400000
6758 15299 7316 1 109.50000 418.400000
6758 15299 10517 1 109.50000 418.400000
7316 15299 10517 1 109.50000 418.400000
1033 15300 5554 1 109.50000 418.400000
1033 15300 6135 1 109.50000 418.400000
1033 15300 9179 1 109.50000 418.400000
5554 15300 6135 1 109.50000 418.400000
5554 15300 9179 1 109.50000 418.400000
6135 15300 9179 1 109.50000 418.400000
5824 15301 5825 1 109.50000 418.400000
5824 15301 5921 1 109.50000 418.400000
5824 15301 10519 1 109.50000 418.400000
5825 15301 5921 1 109.50000 418.400000
5825 15301 10519 1 109.50000 418.400000
5921 15301 10519 1 109.50000 418.400000
4642 15302 9312 1 109.50000 418.400000
4642 15302 9983 1 109.50000 418.400000
4642 15302 10520 1 109.50000 418.400000
9312 15302 9983 1 109.50000 418.400000
9312 15302 10520 1 109.50000 418.400000
9983 15302 10520 1 109.50000 418.400000
1138 15303 5613 1 109.50000 418.400000
1138 15303 5960 1 109.50000 418.400000
1138 15303 9657 1 109.50000 418.400000
5613 15303 5960 1 109.50000 418.400000
5613 15303 9657 1 109.50000 418.400000
5960 15303 9657 1 109.50000 418.400000
5520 15304 10398 1 109.50000 418.400000
5520 15304 10522 1 109.50000 418.400000
5520 15304 10523 1 109.50000 418.400000
10398 15304 10522 1 109.50000 418.400000
10398 15304 10523 1 109.50000 418.400000
10522 15304 10523 1 109.50000 418.400000
4798 15305 6333 1 109.50000 418.400000
4798 15305 8425 1 109.50000 418.400000
4798 15305 8839 1 109.50000 418.400000
6333 15305 8425 1 109.50000 418.400000
6333 15305 8839 1 109.50000 418.400000
8425 15305 8839 1 109.50000 418.400000
5658 15306 10447 1 109.50000 418.400000
5658 15306 10524 1 109.50000 418.400000
5658 15306 10525 1 109.50000 418.400000
10447 15306 10524 1 109.50000 418.400000
10447 15306 10525 1 109.50000 418.400000
10524 15306 10525 1 109.50000 418.400000
6771 15307 9040 1 109.50000 418.400000
6771 15307 9325 1 109.50000 418.400000
6771 15307 10526 1 109.50000 418.400000
9040 15307 9325 1 109.50000 418.400000
9040 15307 10526 1 109.50000 418.400000
9325 15307 10526 1 109.50000 418.400000
1418 15308 3305 1 109.50000 418.400000
1418 15308 3516 1 109.50000 418.400000
1418 15308 4147 1 109.50000 418.400000
3305 15308 3516 1 109.50000 418.400000
3305 15308 4147 1 109.50000 418.400000
3516 15308 4147 1 109.50000 418.400000
6612 15309 9076 1 109.50000 418.400000
6612 15309 10373 1 109.50000 418.400000
6612 15309 10527 1 109.50000 418.400000
9076 15309 10373 1 109.50000 418.400000
9076 15309 10527 1 109.50000 418.400000
10373 15309 10527 1 109.50000 418.400000
2353 15310 8421 1 109.50000 418.400000
2353 15310 8847 1 109.50000 418.400000
2353 15310 10528 1 109.50000 418.400000
8421 15310 8847 1 109.50000 418.400000
8421 15310 10528 1 109.50000 418.400000
8847 15310 10528 1 109.50000 418.400000
8436 15311 9330 1 109.50000 418.400000
8436 15311 10051 1 109.50000 418.400000
8436 15311 10171 1 109.50000 418.400000
9330 15311 10051 1 109.50000 418.400000
9330 15311 10171 1 109.50000 418.400000
10051 15311 10171 1 109.50000 418.400000
1906 15312 5364 1 109.50000 418.400000
1906 15312 10482 1 109.50000 418.400000
1906 15312 10529 1 109.50000 418.400000
5364 15312 10482 1 109.50000 418.400000
5364 15312 10529 1 109.50000 418.400000
10482 15312 10529 1 109.50000 418.400000
7042 15313 7431 1 109.50000 418.400000
7042 15313 7432 1 109.50000 418.400000
7042 15313 10530 1 109.50000 418.400000
7431 15313 7432 1 109.50000 418.400000
7431 15313 10530 1 109.50000 418.400000
7432 15313 10530 1 109.50000 418.400000
4589 15314 4590 1 109.50000 418.400000
4589 15314 4591 1 109.50000 418.400000
4589 15314 4592 1 109.50000 418.400000
4590 15314 4591 1 109.50000 418.400000
4590 15314 4592 1 109.50000 418.400000
4591 15314 4592 1 109.50000 418.400000
2050 15315 5022 1 109.50000 418.400000
2050 15315 9619 1 109.50000 418.400000
2050 15315 9988 1 109.50000 418.400000
5022 15315 9619 1 109.50000 418.400000
5022 15315 9988 1 109.50000 418.400000
9619 15315 9988 1 109.50000 418.400000
3107 15316 3108 1 109.50000 418.400000
3107 15316 8883 1 109.50000 418.400000
3107 15316 10533 1 109.50000 418.400000
3108 15316 8883 1 109.50000 418.400000
3108 15316 10533 1 109.50000 418.400000
8883 15316 10533 1 109.50000 418.400000
3916 15317 7272 1 109.50000 418.400000
3916 15317 10534 1 109.50000 418.400000
3916 15317 10535 1 109.50000 418.400000
7272 15317 10534 1 109.50000 418.400000
7272 15317 10535 1 109.50000 418.400000
10534 15317 10535 1 109.50000 418.400000
2295 15318 3121 1 109.50000 418.400000
2295 15318 4767 1 109.50000 418.400000
2295 15318 10536 1 109.50000 418.400000
3121 15318 4767 1 109.50000 418.400000
3121 15318 10536 1 109.50000 418.400000
4767 15318 10536 1 109.50000 418.400000
4099 15319 8229 1 109.50000 418.400000
4099 15319 9169 1 109.50000 418.400000
4099 15319 10537 1 109.50000 418.400000
8229 15319 9169 1 109.50000 418.400000
8229 15319 10537 1 109.50000 418.400000
9169 15319 10537 1 109.50000 418.400000
4248 15320 6373 1 109.50000 418.400000
4248 15320 9742 1 109.50000 418.400000
4248 15320 10538 1 109.50000 418.400000
6373 15320 9742 1 109.50000 418.400000
6373 15320 10538 1 109.50000 418.400000
9742 15320 10538 1 109.50000 418.400000
1825 15321 6002 1 109.50000 418.400000
1825 15321 9226 1 109.50000 418.400000
1825 15321 10539 1 109.50000 418.400000
6002 15321 9226 1 109.50000 418.400000
6002 15321 10539 1 109.50000 418.400000
9226 15321 10539 1 109.50000 418.400000
1267 15322 1846 1 109.50000 418.400000
1267 15322 8972 1 109.50000 418.400000
1267 15322 10540 1 109.50000 418.400000
1846 15322 8972 1 109.50000 418.400000
1846 15322 10540 1 109.50000 418.400000
8972 15322 10540 1 109.50000 418.400000
3280 15323 10304 1 109.50000 418.400000
3280 15323 10541 1 109.50000 418.400000
3280 15323 10542 1 109.50000 418.400000
10304 15323 10541 1 109.50000 418.400000
10304 15323 10542 1 109.50000 418.400000
10541 15323 10542 1 109.50000 418.400000
4471 15324 7494 1 109.50000 418.400000
4471 15324 8023 1 109.50000 418.400000
4471 15324 10543 1 109.50000 418.400000
7494 15324 8023 1 109.50000 418.400000
7494 15324 10543 1 109.50000 418.400000
8023 15324 10543 1 109.50000 418.400000
8313 15325 8315 1 109.50000 418.400000
8313 15325 10516 1 109.50000 418.400000
8313 15325 10544 1 109.50000 418.400000
8315 15325 10516 1 109.50000 418.400000
8315 15325 10544 1 109.50000 418.400000
10516 15325 10544 1 109.50000 418.400000
7688 15326 9124 1 109.50000 418.400000
7688 15326 10032 1 109.50000 418.400000
7688 15326 10545 1 109.50000 418.400000
9124 15326 10032 1 109.50000 418.400000
9124 15326 10545 1 109.50000 418.400000
10032 15326 10545 1 109.50000 418.400000
4071 15327 4438 1 109.50000 418.400000
4071 15327 10546 1 109.50000 418.400000
4071 15327 10547 1 109.50000 418.400000
4438 15327 10546 1 109.50000 418.400000
4438 15327 10547 1 109.50000 418.400000
10546 15327 10547 1 109.50000 418.400000
2337 15328 2339 1 109.50000 418.400000
2337 15328 2340 1 109.50000 418.400000
2337 15328 10548 1 109.50000 418.400000
2339 15328 2340 1 109.50000 418.400000
2339 15328 10548 1 109.50000 418.400000
2340 15328 10548 1 109.50000 418.400000
3375 15329 10550 1 109.50000 418.400000
3375 15329 10551 1 109.50000 418.400000
3375 15329 10552 1 109.50000 418.400000
10550 15329 10551 1 109.50000 418.400000
10550 15329 10552 1 109.50000 418.400000
10551 15329 10552 1 109.50000 418.400000
6628 15330 7326 1 109.50000 418.400000
6628 15330 10243 1 109.50000 418.400000
6628 15330 10252 1 109.50000 418.400000
7326 15330 10243 1 109.50000 418.400000
7326 15330 10252 1 109.50000 418.400000
10243 15330 10252 1 109.50000 418.400000
4820 15331 5515 1 109.50000 418.400000
4820 15331 9136 1 109.50000 418.400000
4820 15331 10553 1 109.50000 418.400000
5515 15331 9136 1 109.50000 418.400000
5515 15331 10553 1 109.50000 418.400000
9136 15331 10553 1 109.50000 418.400000
2194 15332 8668 1 109.50000 418.400000
2194 15332 10554 1 109.50000 418.400000
2194 15332 10555 1 109.50000 418.400000
8668 15332 10554 1 109.50000 418.400000
8668 15332 10555 1 109.50000 418.400000
10554 15332 10555 1 109.50000 418.400000
2544 15333 10556 1 109.50000 418.400000
2544 15333 10557 1 109.50000 418.400000
2544 15333 10558 1 109.50000 418.400000
10556 15333 10557 1 109.50000 418.400000
10556 15333 10558 1 109.50000 418.400000
10557 15333 10558 1 109.50000 418.400000
298 15334 8141 1 109.50000 418.400000
298 15334 10295 1 109.50000 418.400000
298 15334 10486 1 109.50000 418.400000
8141 15334 10295 1 109.50000 418.400000
8141 15334 10486 1 109.50000 418.400000
10295 15334 10486 1 109.50000 418.400000
3125 15335 9116 1 109.50000 418.400000
3125 15335 10380 1 109.50000 418.400000
3125 15335 10559 1 109.50000 418.400000
9116 15335 10380 1 109.50000 418.400000
9116 15335 10559 1 109.50000 418.400000
10380 15335 10559 1 109.50000 418.400000
7871 15336 10562 1 109.50000 418.400000
7871 15336 10563 1 109.50000 418.400000
7871 15336 10564 1 109.50000 418.400000
10562 15336 10563 1 109.50000 418.400000
10562 15336 10564 1 109.50000 418.400000
10563 15336 10564 1 109.50000 418.400000
1553 15337 6858 1 109.50000 418.400000
1553 15337 9887 1 109.50000 418.400000
1553 15337 10565 1 109.50000 418.400000
6858 15337 9887 1 109.50000 418.400000
6858 15337 10565 1 109.50000 418.400000
9887 15337 10565 1 109.50000 418.400000
4358 15338 7137 1 109.50000 418.400000
4358 15338 7817 1 109.50000 418.400000
4358 15338 10566 1 109.50000 418.400000
7137 15338 7817 1 109.50000 418.400000
7137 15338 10566 1 109.50000 418.400000
7817 15338 10566 1 109.50000 418.400000
1525 15339 8743 1 109.50000 418.400000
1525 15339 10233 1 109.50000 418.400000
1525 15339 10568 1 109.50000 418.400000
8743 15339 10233 1 109.50000 418.400000
8743 15339 10568 1 109.50000 418.400000
10233 15339 10568 1 109.50000 418.400000
6006 15340 9919 1 109.50000 418.400000
6006 15340 10569 1 109.50000 418.400000
6006 15340 10570 1 109.50000 418.400000
9919 15340 10569 1 109.50000 418.400000
9919 15340 10570 1 109.50000 418.400000
10569 15340 10570 1 109.50000 418.400000
3924 15341 7261 1 109.50000 418.400000
3924 15341 9703 1 109.50000 418.400000
3924 15341 10571 1 109.50000 418.400000
7261 15341 9703 1 109.50000 418.400000
7261 15341 10571 1 109.50000 418.400000
9703 15341 10571 1 109.50000 418.400000
5174 15342 8482 1 109.50000 418.400000
5174 15342 9031 1 109.50000 418.400000
5174 15342 10558 1 109.50000 418.400000
8482 15342 9031 1 109.50000 418.400000
8482 15342 10558 1 109.50000 418.400000
9031 15342 10558 1 109.50000 418.400000
534 15343 4768 1 109.50000 418.400000
534 15343 6171 1 109.50000 418.400000
534 15343 10009 1 109.50000 418.400000
4768 15343 6171 1 109.50000 418.400000
4768 15343 10009 1 109.50000 418.400000
6171 15343 10009 1 109.50000 418.400000
2169 15344 6712 1 109.50000 418.400000
2169 15344 8060 1 109.50000 418.400000
2169 15344 10573 1 109.50000 418.400000
6712 15344 8060 1 109.50000 418.400000
6712 15344 10573 1 109.50000 418.400000
8060 15344 10573 1 109.50000 418.400000
4666 15345 9753 1 109.50000 418.400000
4666 15345 10506 1 109.50000 418.400000
4666 15345 10574 1 109.50000 418.400000
9753 15345 10506 1 109.50000 418.400000
9753 15345 10574 1 109.50000 418.400000
10506 15345 10574 1 109.50000 418.400000
9303 15346 10575 1 109.50000 418.400000
9303 15346 10576 1 109.50000 418.400000
9303 15346 10577 1 109.50000 418.400000
10575 15346 10576 1 109.50000 418.400000
10575 15346 10577 1 109.50000 418.400000
10576 15346 10577 1 109.50000 418.400000
1358 15347 2035 1 109.50000 418.400000
1358 15347 3304 1 109.50000 418.400000
1358 15347 5865 1 109.50000 418.400000
2035 15347 3304 1 109.50000 418.400000
2035 15347 5865 1 109.50000 418.400000
3304 15347 5865 1 109.50000 418.400000
1350 15348 1352 1 109.50000 418.400000
1350 15348 9334 1 109.50000 418.400000
1350 15348 10578 1 109.50000 418.400000
1352 15348 9334 1 109.50000 418.400000
1352 15348 10578 1 109.50000 418.400000
9334 15348 10578 1 109.50000 418.400000
498 15349 4909 1 109.50000 418.400000
498 15349 8118 1 109.50000 418.400000
498 15349 9495 1 109.50000 418.400000
4909 15349 8118 1 109.50000 418.400000
4909 15349 9495 1 109.50000 418.400000
8118 15349 9495 1 109.50000 418.400000
1860 15350 8059 1 109.50000 418.400000
1860 15350 10579 1 109.50000 418.400000
1860 15350 10580 1 109.50000 418.400000
8059 15350 10579 1 109.50000 418.400000
8059 15350 10580 1 109.50000 418.400000
10579 15350 10580 1 109.50000 418.400000
749 15351 7519 1 109.50000 418.400000
749 15351 9308 1 109.50000 418.400000
749 15351 10173 1 109.50000 418.400000
7519 15351 9308 1 109.50000 418.400000
7519 15351 10173 1 109.50000 418.400000
9308 15351 10173 1 109.50000 418.400000
827 15352 3336 1 109.50000 418.400000
827 15352 10314 1 109.50000 418.400000
827 15352 10583 1 109.50000 418.400000
3336 15352 10314 1 109.50000 418.400000
3336 15352 10583 1 109.50000 418.400000
10314 15352 10583 1 109.50000 418.400000
1513 15353 10262 1 109.50000 418.400000
1513 15353 10584 1 109.50000 418.400000
1513 15353 10585 1 109.50000 418.400000
10262 15353 10584 1 109.50000 418.400000
10262 15353 10585 1 109.50000 418.400000
10584 15353 10585 1 109.50000 418.400000
8249 15354 9072 1 109.50000 418.400000
8249 15354 10316 1 109.50000 418.400000
8249 15354 10586 1 109.50000 418.400000
9072 15354 10316 1 109.50000 418.400000
9072 15354 10586 1 109.50000 418.400000
10316 15354 10586 1 109.50000 418.400000
1040 15355 7285 1 109.50000 418.400000
1040 15355 10587 1 109.50000 418.400000
1040 15355 11320 1 109.50000 418.400000
7285 15355 10587 1 109.50000 418.400000
7285 15355 11320 1 109.50000 418.400000
10587 15355 11320 1 109.50000 418.400000
4110 15356 4812 1 109.50000 418.400000
4110 15356 9873 1 109.50000 418.400000
4110 15356 10588 1 109.50000 418.400000
4812 15356 9873 1 109.50000 418.400000
4812 15356 10588 1 109.50000 418.400000
9873 15356 10588 1 109.50000 418.400000
3526 15357 4610 1 109.50000 418.400000
3526 15357 6491 1 109.50000 418.400000
3526 15357 9551 1 109.50000 418.400000
4610 15357 6491 1 109.50000 418.400000
4610 15357 9551 1 109.50000 418.400000
6491 15357 9551 1 109.50000 418.400000
884 15358 5647 1 109.50000 418.400000
884 15358 8128 1 109.50000 418.400000
884 15358 8348 1 109.50000 418.400000
5647 15358 8128 1 109.50000 418.400000
5647 15358 8348 1 109.50000 418.400000
8128 15358 8348 1 109.50000 418.400000
636 15359 4170 1 109.50000 418.400000
636 15359 8775 1 109.50000 418.400000
636 15359 10589 1 109.50000 418.400000
4170 15359 8775 1 109.50000 418.400000
4170 15359 10589 1 109.50000 418.400000
8775 15359 10589 1 109.50000 418.400000
794 15360 7801 1 109.50000 418.400000
794 15360 8113 1 109.50000 418.400000
794 15360 10590 1 109.50000 418.400000
7801 15360 8113 1 109.50000 418.400000
7801 15360 10590 1 109.50000 418.400000
8113 15360 10590 1 109.50000 418.400000
1184 15361 3868 1 109.50000 418.400000
1184 15361 4616 1 109.50000 418.400000
1184 15361 8197 1 109.50000 418.400000
3868 15361 4616 1 109.50000 418.400000
3868 15361 8197 1 109.50000 418.400000
4616 15361 8197 1 109.50000 418.400000
5991 15362 10515 1 109.50000 418.400000
5991 15362 10591 1 109.50000 418.400000
5991 15362 11141 1 109.50000 418.400000
10515 15362 10591 1 109.50000 418.400000
10515 15362 11141 1 109.50000 418.400000
10591 15362 11141 1 109.50000 418.400000
4348 15363 6540 1 109.50000 418.400000
4348 15363 8165 1 109.50000 418.400000
4348 15363 10594 1 109.50000 418.400000
6540 15363 8165 1 109.50000 418.400000
6540 15363 10594 1 109.50000 418.400000
8165 15363 10594 1 109.50000 418.400000
1140 15364 5803 1 109.50000 418.400000
1140 15364 9840 1 109.50000 418.400000
1140 15364 10595 1 109.50000 418.400000
5803 15364 9840 1 109.50000 418.400000
5803 15364 10595 1 109.50000 418.400000
9840 15364 10595 1 109.50000 418.400000
8329 15365 9014 1 109.50000 418.400000
8329 15365 10530 1 109.50000 418.400000
8329 15365 10596 1 109.50000 418.400000
9014 15365 10530 1 109.50000 418.400000
9014 15365 10596 1 109.50000 418.400000
10530 15365 10596 1 109.50000 418.400000
3881 15366 4476 1 109.50000 418.400000
3881 15366 10508 1 109.50000 418.400000
3881 15366 10597 1 109.50000 418.400000
4476 15366 10508 1 109.50000 418.400000
4476 15366 10597 1 109.50000 418.400000
10508 15366 10597 1 109.50000 418.400000
5108 15367 7532 1 109.50000 418.400000
5108 15367 10478 1 109.50000 418.400000
5108 15367 10598 1 109.50000 418.400000
7532 15367 10478 1 109.50000 418.400000
7532 15367 10598 1 109.50000 418.400000
10478 15367 10598 1 109.50000 418.400000
1408 15368 3486 1 109.50000 418.400000
1408 15368 7430 1 109.50000 418.400000
1408 15368 10599 1 109.50000 418.400000
3486 15368 7430 1 109.50000 418.400000
3486 15368 10599 1 109.50000 418.400000
7430 15368 10599 1 109.50000 418.400000
2478 15369 4142 1 109.50000 418.400000
2478 15369 10600 1 109.50000 418.400000
2478 15369 10601 1 109.50000 418.400000
4142 15369 10600 1 109.50000 418.400000
4142 15369 10601 1 109.50000 418.400000
10600 15369 10601 1 109.50000 418.400000
3183 15370 6937 1 109.50000 418.400000
3183 15370 8350 1 109.50000 418.400000
3183 15370 10566 1 109.50000 418.400000
6937 15370 8350 1 109.50000 418.400000
6937 15370 10566 1 109.50000 418.400000
8350 15370 10566 1 109.50000 418.400000
1748 15371 6738 1 109.50000 418.400000
1748 15371 6981 1 109.50000 418.400000
1748 15371 9900 1 109.50000 418.400000
6738 15371 6981 1 109.50000 418.400000
6738 15371 9900 1 109.50000 418.400000
6981 15371 9900 1 109.50000 418.400000
5461 15372 8471 1 109.50000 418.400000
5461 15372 9234 1 109.50000 418.400000
5461 15372 10602 1 109.50000 418.400000
8471 15372 9234 1 109.50000 418.400000
8471 15372 10602 1 109.50000 418.400000
9234 15372 10602 1 109.50000 418.400000
6938 15373 10068 1 109.50000 418.400000
6938 15373 10603 1 109.50000 418.400000
6938 15373 10604 1 109.50000 418.400000
10068 15373 10603 1 109.50000 418.400000
10068 15373 10604 1 109.50000 418.400000
10603 15373 10604 1 109.50000 418.400000
6763 15374 6773 1 109.50000 418.400000
6763 15374 9970 1 109.50000 418.400000
6763 15374 10605 1 109.50000 418.400000
6773 15374 9970 1 109.50000 418.400000
6773 15374 10605 1 109.50000 418.400000
9970 15374 10605 1 109.50000 418.400000
4524 15375 8510 1 109.50000 418.400000
4524 15375 8959 1 109.50000 418.400000
4524 15375 10606 1 109.50000 418.400000
8510 15375 8959 1 109.50000 418.400000
8510 15375 10606 1 109.50000 418.400000
8959 15375 10606 1 109.50000 418.400000
4351 15376 4669 1 109.50000 418.400000
4351 15376 7078 1 109.50000 418.400000
4351 15376 7337 1 109.50000 418.400000
4669 15376 7078 1 109.50000 418.400000
4669 15376 7337 1 109.50000 418.400000
7078 15376 7337 1 109.50000 418.400000
326 15377 2174 1 109.50000 418.400000
326 15377 8260 1 109.50000 418.400000
326 15377 9627 1 109.50000 418.400000
2174 15377 8260 1 109.50000 418.400000
2174 15377 9627 1 109.50000 418.400000
8260 15377 9627 1 109.50000 418.400000
3970 15378 7312 1 109.50000 418.400000
3970 15378 10608 1 109.50000 418.400000
3970 15378 10609 1 109.50000 418.400000
7312 15378 10608 1 109.50000 418.400000
7312 15378 10609 1 109.50000 418.400000
10608 15378 10609 1 109.50000 418.400000
8354 15379 10591 1 109.50000 418.400000
8354 15379 10610 1 109.50000 418.400000
8354 15379 10611 1 109.50000 418.400000
10591 15379 10610 1 109.50000 418.400000
10591 15379 10611 1 109.50000 418.400000
10610 15379 10611 1 109.50000 418.400000
6134 15380 7281 1 109.50000 418.400000
6134 15380 7282 1 109.50000 418.400000
6134 15380 8964 1 109.50000 418.400000
7281 15380 7282 1 109.50000 418.400000
7281 15380 8964 1 109.50000 418.400000
7282 15380 8964 1 109.50000 418.400000
6596 15381 10585 1 109.50000 418.400000
6596 15381 10612 1 109.50000 418.400000
6596 15381 10613 1 109.50000 418.400000
10585 15381 10612 1 109.50000 418.400000
10585 15381 10613 1 109.50000 418.400000
10612 15381 10613 1 109.50000 418.400000
575 15382 6299 1 109.50000 418.400000
575 15382 8859 1 109.50000 418.400000
575 15382 10251 1 109.50000 418.400000
6299 15382 8859 1 109.50000 418.400000
6299 15382 10251 1 109.50000 418.400000
8859 15382 10251 1 109.50000 418.400000
1598 15383 7689 1 109.50000 418.400000
1598 15383 10257 1 109.50000 418.400000
1598 15383 10614 1 109.50000 418.400000
7689 15383 10257 1 109.50000 418.400000
7689 15383 10614 1 109.50000 418.400000
10257 15383 10614 1 109.50000 418.400000
4043 15384 9909 1 109.50000 418.400000
4043 15384 10382 1 109.50000 418.400000
4043 15384 10519 1 109.50000 418.400000
9909 15384 10382 1 109.50000 418.400000
9909 15384 10519 1 109.50000 418.400000
10382 15384 10519 1 109.50000 418.400000
586 15385 3442 1 109.50000 418.400000
586 15385 7274 1 109.50000 418.400000
586 15385 10615 1 109.50000 418.400000
3442 15385 7274 1 109.50000 418.400000
3442 15385 10615 1 109.50000 418.400000
7274 15385 10615 1 109.50000 418.400000
4122 15386 6022 1 109.50000 418.400000
4122 15386 8533 1 109.50000 418.400000
4122 15386 8951 1 109.50000 418.400000
6022 15386 8533 1 109.50000 418.400000
6022 15386 8951 1 109.50000 418.400000
8533 15386 8951 1 109.50000 418.400000
627 15387 3898 1 109.50000 418.400000
627 15387 10323 1 109.50000 418.400000
627 15387 10616 1 109.50000 418.400000
3898 15387 10323 1 109.50000 418.400000
3898 15387 10616 1 109.50000 418.400000
10323 15387 10616 1 109.50000 418.400000
910 15388 4273 1 109.50000 418.400000
910 15388 10617 1 109.50000 418.400000
910 15388 10618 1 109.50000 418.400000
4273 15388 10617 1 109.50000 418.400000
4273 15388 10618 1 109.50000 418.400000
10617 15388 10618 1 109.50000 418.400000
1537 15389 3582 1 109.50000 418.400000
1537 15389 10430 1 109.50000 418.400000
1537 15389 10619 1 109.50000 418.400000
3582 15389 10430 1 109.50000 418.400000
3582 15389 10619 1 109.50000 418.400000
10430 15389 10619 1 109.50000 418.400000
92 15390 814 1 109.50000 418.400000
92 15390 6854 1 109.50000 418.400000
92 15390 11302 1 109.50000 418.400000
814 15390 6854 1 109.50000 418.400000
814 15390 11302 1 109.50000 418.400000
6854 15390 11302 1 109.50000 418.400000
7172 15391 7521 1 109.50000 418.400000
7172 15391 7522 1 109.50000 418.400000
7172 15391 8953 1 109.50000 418.400000
7521 15391 7522 1 109.50000 418.400000
7521 15391 8953 1 109.50000 418.400000
7522 15391 8953 1 109.50000 418.400000
2282 15392 6762 1 109.50000 418.400000
2282 15392 6763 1 109.50000 418.400000
2282 15392 10526 1 109.50000 418.400000
6762 15392 6763 1 109.50000 418.400000
6762 15392 10526 1 109.50000 418.400000
6763 15392 10526 1 109.50000 418.400000
4282 15393 9442 1 109.50000 418.400000
4282 15393 10620 1 109.50000 418.400000
4282 15393 10621 1 109.50000 418.400000
9442 15393 10620 1 109.50000 418.400000
9442 15393 10621 1 109.50000 418.400000
10620 15393 10621 1 109.50000 418.400000
2837 15394 6315 1 109.50000 418.400000
2837 15394 10008 1 109.50000 418.400000
2837 15394 10622 1 109.50000 418.400000
6315 15394 10008 1 109.50000 418.400000
6315 15394 10622 1 109.50000 418.400000
10008 15394 10622 1 109.50000 418.400000
10188 15395 10623 1 109.50000 418.400000
10188 15395 10624 1 109.50000 418.400000
10188 15395 10647 1 109.50000 418.400000
10623 15395 10624 1 109.50000 418.400000
10623 15395 10647 1 109.50000 418.400000
10624 15395 10647 1 109.50000 418.400000
8082 15396 8749 1 109.50000 418.400000
8082 15396 10147 1 109.50000 418.400000
8082 15396 10627 1 109.50000 418.400000
8749 15396 10147 1 109.50000 418.400000
8749 15396 10627 1 109.50000 418.400000
10147 15396 10627 1 109.50000 418.400000
5231 15397 5233 1 109.50000 418.400000
5231 15397 10629 1 109.50000 418.400000
5231 15397 10630 1 109.50000 418.400000
5233 15397 10629 1 109.50000 418.400000
5233 15397 10630 1 109.50000 418.400000
10629 15397 10630 1 109.50000 418.400000
336 15398 337 1 109.50000 418.400000
336 15398 339 1 109.50000 418.400000
336 15398 10631 1 109.50000 418.400000
337 15398 339 1 109.50000 418.400000
337 15398 10631 1 109.50000 418.400000
339 15398 10631 1 109.50000 418.400000
2699 15399 10076 1 109.50000 418.400000
2699 15399 10139 1 109.50000 418.400000
2699 15399 11300 1 109.50000 418.400000
10076 15399 10139 1 109.50000 418.400000
10076 15399 11300 1 109.50000 418.400000
10139 15399 11300 1 109.50000 418.400000
3277 15400 4188 1 109.50000 418.400000
3277 15400 7117 1 109.50000 418.400000
3277 15400 9737 1 109.50000 418.400000
4188 15400 7117 1 109.50000 418.400000
4188 15400 9737 1 109.50000 418.400000
7117 15400 9737 1 109.50000 418.400000
602 15401 716 1 109.50000 418.400000
602 15401 717 1 109.50000 418.400000
602 15401 9198 1 109.50000 418.400000
716 15401 717 1 109.50000 418.400000
716 15401 9198 1 109.50000 418.400000
717 15401 9198 1 109.50000 418.400000
2418 15402 6080 1 109.50000 418.400000
2418 15402 10432 1 109.50000 418.400000
2418 15402 10632 1 109.50000 418.400000
6080 15402 10432 1 109.50000 418.400000
6080 15402 10632 1 109.50000 418.400000
10432 15402 10632 1 109.50000 418.400000
387 15403 6430 1 109.50000 418.400000
387 15403 10142 1 109.50000 418.400000
387 15403 10633 1 109.50000 418.400000
6430 15403 10142 1 109.50000 418.400000
6430 15403 10633 1 109.50000 418.400000
10142 15403 10633 1 109.50000 418.400000
3229 15404 8247 1 109.50000 418.400000
3229 15404 8301 1 109.50000 418.400000
3229 15404 10121 1 109.50000 418.400000
8247 15404 8301 1 109.50000 418.400000
8247 15404 10121 1 109.50000 418.400000
8301 15404 10121 1 109.50000 418.400000
1512 15405 10342 1 109.50000 418.400000
1512 15405 10627 1 109.50000 418.400000
1512 15405 10634 1 109.50000 418.400000
10342 15405 10627 1 109.50000 418.400000
10342 15405 10634 1 109.50000 418.400000
10627 15405 10634 1 109.50000 418.400000
1061 15406 2228 1 109.50000 418.400000
1061 15406 3426 1 109.50000 418.400000
1061 15406 7005 1 109.50000 418.400000
2228 15406 3426 1 109.50000 418.400000
2228 15406 7005 1 109.50000 418.400000
3426 15406 7005 1 109.50000 418.400000
4566 15407 10131 1 109.50000 418.400000
4566 15407 10635 1 109.50000 418.400000
4566 15407 10636 1 109.50000 418.400000
10131 15407 10635 1 109.50000 418.400000
10131 15407 10636 1 109.50000 418.400000
10635 15407 10636 1 109.50000 418.400000
6153 15408 7610 1 109.50000 418.400000
6153 15408 8341 1 109.50000 418.400000
6153 15408 10485 1 109.50000 418.400000
7610 15408 8341 1 109.50000 418.400000
7610 15408 10485 1 109.50000 418.400000
8341 15408 10485 1 109.50000 418.400000
1332 15409 7959 1 109.50000 418.400000
1332 15409 9628 1 109.50000 418.400000
1332 15409 10637 1 109.50000 418.400000
7959 15409 9628 1 109.50000 418.400000
7959 15409 10637 1 109.50000 418.400000
9628 15409 10637 1 109.50000 418.400000
4582 15410 4619 1 109.50000 418.400000
4582 15410 6934 1 109.50000 418.400000
4582 15410 10638 1 109.50000 418.400000
4619 15410 6934 1 109.50000 418.400000
4619 15410 10638 1 109.50000 418.400000
6934 15410 10638 1 109.50000 418.400000
10639 15411 10640 1 109.50000 418.400000
10639 15411 10641 1 109.50000 418.400000
10639 15411 10642 1 109.50000 418.400000
10640 15411 10641 1 109.50000 418.400000
10640 15411 10642 1 109.50000 418.400000
10641 15411 10642 1 109.50000 418.400000
2352 15412 6169 1 109.50000 418.400000
2352 15412 9994 1 109.50000 418.400000
2352 15412 10643 1 109.50000 418.400000
6169 15412 9994 1 109.50000 418.400000
6169 15412 10643 1 109.50000 418.400000
9994 15412 10643 1 109.50000 418.400000
1487 15413 8677 1 109.50000 418.400000
1487 15413 9791 1 109.50000 418.400000
1487 15413 10644 1 109.50000 418.400000
8677 15413 9791 1 109.50000 418.400000
8677 15413 10644 1 109.50000 418.400000
9791 15413 10644 1 109.50000 418.400000
4749 15414 8505 1 109.50000 418.400000
4749 15414 8935 1 109.50000 418.400000
4749 15414 10361 1 109.50000 418.400000
8505 15414 8935 1 109.50000 418.400000
8505 15414 10361 1 109.50000 418.400000
8935 15414 10361 1 109.50000 418.400000
3552 15415 4699 1 109.50000 418.400000
3552 15415 6692 1 109.50000 418.400000
3552 15415 10552 1 109.50000 418.400000
4699 15415 6692 1 109.50000 418.400000
4699 15415 10552 1 109.50000 418.400000
6692 15415 10552 1 109.50000 418.400000
4246 15416 4486 1 109.50000 418.400000
4246 15416 10645 1 109.50000 418.400000
4246 15416 10646 1 109.50000 418.400000
4486 15416 10645 1 109.50000 418.400000
4486 15416 10646 1 109.50000 418.400000
10645 15416 10646 1 109.50000 418.400000
6830 15417 8292 1 109.50000 418.400000
6830 15417 9759 1 109.50000 418.400000
6830 15417 10647 1 109.50000 418.400000
8292 15417 9759 1 109.50000 418.400000
8292 15417 10647 1 109.50000 418.400000
9759 15417 10647 1 109.50000 418.400000
3726 15418 6710 1 109.50000 418.400000
3726 15418 9077 1 109.50000 418.400000
3726 15418 10648 1 109.50000 418.400000
6710 15418 9077 1 109.50000 418.400000
6710 15418 10648 1 109.50000 418.400000
9077 15418 10648 1 109.50000 418.400000
2588 15419 5888 1 109.50000 418.400000
2588 15419 10276 1 109.50000 418.400000
2588 15419 10649 1 109.50000 418.400000
5888 15419 10276 1 109.50000 418.400000
5888 15419 10649 1 109.50000 418.400000
10276 15419 10649 1 109.50000 418.400000
4917 15420 5769 1 109.50000 418.400000
4917 15420 7647 1 109.50000 418.400000
4917 15420 10650 1 109.50000 418.400000
5769 15420 7647 1 109.50000 418.400000
5769 15420 10650 1 109.50000 418.400000
7647 15420 10650 1 109.50000 418.400000
5539 15421 5724 1 109.50000 418.400000
5539 15421 10651 1 109.50000 418.400000
5539 15421 10652 1 109.50000 418.400000
5724 15421 10651 1 109.50000 418.400000
5724 15421 10652 1 109.50000 418.400000
10651 15421 10652 1 109.50000 418.400000
218 15422 3678 1 109.50000 418.400000
218 15422 7065 1 109.50000 418.400000
218 15422 10653 1 109.50000 418.400000
3678 15422 7065 1 109.50000 418.400000
3678 15422 10653 1 109.50000 418.400000
7065 15422 10653 1 109.50000 418.400000
4897 15423 9483 1 109.50000 418.400000
4897 15423 10604 1 109.50000 418.400000
4897 15423 10654 1 109.50000 418.400000
9483 15423 10604 1 109.50000 418.400000
9483 15423 10654 1 109.50000 418.400000
10604 15423 10654 1 109.50000 418.400000
2765 15424 10655 1 109.50000 418.400000
2765 15424 10656 1 109.50000 418.400000
2765 15424 10657 1 109.50000 418.400000
10655 15424 10656 1 109.50000 418.400000
10655 15424 10657 1 109.50000 418.400000
10656 15424 10657 1 109.50000 418.400000
5128 15425 7171 1 109.50000 418.400000
5128 15425 10538 1 109.50000 418.400000
5128 15425 10658 1 109.50000 418.400000
7171 15425 10538 1 109.50000 418.400000
7171 15425 10658 1 109.50000 418.400000
10538 15425 10658 1 109.50000 418.400000
97 15426 932 1 109.50000 418.400000
97 15426 5185 1 109.50000 418.400000
97 15426 8705 1 109.50000 418.400000
932 15426 5185 1 109.50000 418.400000
932 15426 8705 1 109.50000 418.400000
5185 15426 8705 1 109.50000 418.400000
5497 15427 9305 1 109.50000 418.400000
5497 15427 10035 1 109.50000 418.400000
5497 15427 10540 1 109.50000 418.400000
9305 15427 10035 1 109.50000 418.400000
9305 15427 10540 1 109.50000 418.400000
10035 15427 10540 1 109.50000 418.400000
2812 15428 7344 1 109.50000 418.400000
2812 15428 8592 1 109.50000 418.400000
2812 15428 10659 1 109.50000 418.400000
7344 15428 8592 1 109.50000 418.400000
7344 15428 10659 1 109.50000 418.400000
8592 15428 10659 1 109.50000 418.400000
907 15429 10014 1 109.50000 418.400000
907 15429 10660 1 109.50000 418.400000
907 15429 10661 1 109.50000 418.400000
10014 15429 10660 1 109.50000 418.400000
10014 15429 10661 1 109.50000 418.400000
10660 15429 10661 1 109.50000 418.400000
1029 15430 7636 1 109.50000 418.400000
1029 15430 10586 1 109.50000 418.400000
1029 15430 10662 1 109.50000 418.400000
7636 15430 10586 1 109.50000 418.400000
7636 15430 10662 1 109.50000 418.400000
10586 15430 10662 1 109.50000 418.400000
9028 15431 9867 1 109.50000 418.400000
9028 15431 10477 1 109.50000 418.400000
9028 15431 10663 1 109.50000 418.400000
9867 15431 10477 1 109.50000 418.400000
9867 15431 10663 1 109.50000 418.400000
10477 15431 10663 1 109.50000 418.400000
7630 15432 9929 1 109.50000 418.400000
7630 15432 10328 1 109.50000 418.400000
7630 15432 10664 1 109.50000 418.400000
9929 15432 10328 1 109.50000 418.400000
9929 15432 10664 1 109.50000 418.400000
10328 15432 10664 1 109.50000 418.400000
3258 15433 9883 1 109.50000 418.400000
3258 15433 10522 1 109.50000 418.400000
3258 15433 10665 1 109.50000 418.400000
9883 15433 10522 1 109.50000 418.400000
9883 15433 10665 1 109.50000 418.400000
10522 15433 10665 1 109.50000 418.400000
1130 15434 1483 1 109.50000 418.400000
1130 15434 7520 1 109.50000 418.400000
1130 15434 8072 1 109.50000 418.400000
1483 15434 7520 1 109.50000 418.400000
1483 15434 8072 1 109.50000 418.400000
7520 15434 8072 1 109.50000 418.400000
7926 15435 9773 1 109.50000 418.400000
7926 15435 10081 1 109.50000 418.400000
7926 15435 10666 1 109.50000 418.400000
9773 15435 10081 1 109.50000 418.400000
9773 15435 10666 1 109.50000 418.400000
10081 15435 10666 1 109.50000 418.400000
7713 15436 8019 1 109.50000 418.400000
7713 15436 9677 1 109.50000 418.400000
7713 15436 10648 1 109.50000 418.400000
8019 15436 9677 1 109.50000 418.400000
8019 15436 10648 1 109.50000 418.400000
9677 15436 10648 1 109.50000 418.400000
8641 15437 9275 1 109.50000 418.400000
8641 15437 9955 1 109.50000 418.400000
8641 15437 10667 1 109.50000 418.400000
9275 15437 9955 1 109.50000 418.400000
9275 15437 10667 1 109.50000 418.400000
9955 15437 10667 1 109.50000 418.400000
2130 15438 6375 1 109.50000 418.400000
2130 15438 6849 1 109.50000 418.400000
2130 15438 9810 1 109.50000 418.400000
6375 15438 6849 1 109.50000 418.400000
6375 15438 9810 1 109.50000 418.400000
6849 15438 9810 1 109.50000 418.400000
5060 15439 6049 1 109.50000 418.400000
5060 15439 7966 1 109.50000 418.400000
5060 15439 10668 1 109.50000 418.400000
6049 15439 7966 1 109.50000 418.400000
6049 15439 10668 1 109.50000 418.400000
7966 15439 10668 1 109.50000 418.400000
945 15440 5085 1 109.50000 418.400000
945 15440 5493 1 109.50000 418.400000
945 15440 8069 1 109.50000 418.400000
5085 15440 5493 1 109.50000 418.400000
5085 15440 8069 1 109.50000 418.400000
5493 15440 8069 1 109.50000 418.400000
9212 15441 10669 1 109.50000 418.400000
9212 15441 10670 1 109.50000 418.400000
9212 15441 10671 1 109.50000 418.400000
10669 15441 10670 1 109.50000 418.400000
10669 15441 10671 1 109.50000 418.400000
10670 15441 10671 1 109.50000 418.400000
7006 15442 9162 1 109.50000 418.400000
7006 15442 10062 1 109.50000 418.400000
7006 15442 10672 1 109.50000 418.400000
9162 15442 10062 1 109.50000 418.400000
9162 15442 10672 1 109.50000 418.400000
10062 15442 10672 1 109.50000 418.400000
1126 15443 5966 1 109.50000 418.400000
1126 15443 6603 1 109.50000 418.400000
1126 15443 7749 1 109.50000 418.400000
5966 15443 6603 1 109.50000 418.400000
5966 15443 7749 1 109.50000 418.400000
6603 15443 7749 1 109.50000 418.400000
34 15444 3780 1 109.50000 418.400000
34 15444 7434 1 109.50000 418.400000
34 15444 8508 1 109.50000 418.400000
3780 15444 7434 1 109.50000 418.400000
3780 15444 8508 1 109.50000 418.400000
7434 15444 8508 1 109.50000 418.400000
7377 15445 9590 1 109.50000 418.400000
7377 15445 9861 1 109.50000 418.400000
7377 15445 10336 1 109.50000 418.400000
9590 15445 9861 1 109.50000 418.400000
9590 15445 10336 1 109.50000 418.400000
9861 15445 10336 1 109.50000 418.400000
8836 15446 8892 1 109.50000 418.400000
8836 15446 9043 1 109.50000 418.400000
8836 15446 9738 1 109.50000 418.400000
8892 15446 9043 1 109.50000 418.400000
8892 15446 9738 1 109.50000 418.400000
9043 15446 9738 1 109.50000 418.400000
5612 15447 6818 1 109.50000 418.400000
5612 15447 7210 1 109.50000 418.400000
5612 15447 10673 1 109.50000 418.400000
6818 15447 7210 1 109.50000 418.400000
6818 15447 10673 1 109.50000 418.400000
7210 15447 10673 1 109.50000 418.400000
4608 15448 6361 1 109.50000 418.400000
4608 15448 10002 1 109.50000 418.400000
4608 15448 10674 1 109.50000 418.400000
6361 15448 10002 1 109.50000 418.400000
6361 15448 10674 1 109.50000 418.400000
10002 15448 10674 1 109.50000 418.400000
6454 15449 6667 1 109.50000 418.400000
6454 15449 9686 1 109.50000 418.400000
6454 15449 10675 1 109.50000 418.400000
6667 15449 9686 1 109.50000 418.400000
6667 15449 10675 1 109.50000 418.400000
9686 15449 10675 1 109.50000 418.400000
2795 15450 2797 1 109.50000 418.400000
2795 15450 4598 1 109.50000 418.400000
2795 15450 10476 1 109.50000 418.400000
2797 15450 4598 1 109.50000 418.400000
2797 15450 10476 1 109.50000 418.400000
4598 15450 10476 1 109.50000 418.400000
5426 15451 7429 1 109.50000 418.400000
5426 15451 10417 1 109.50000 418.400000
5426 15451 10677 1 109.50000 418.400000
7429 15451 10417 1 109.50000 418.400000
7429 15451 10677 1 109.50000 418.400000
10417 15451 10677 1 109.50000 418.400000
1591 15452 8771 1 109.50000 418.400000
1591 15452 9695 1 109.50000 418.400000
1591 15452 10668 1 109.50000 418.400000
8771 15452 9695 1 109.50000 418.400000
8771 15452 10668 1 109.50000 418.400000
9695 15452 10668 1 109.50000 418.400000
5641 15453 5809 1 109.50000 418.400000
5641 15453 6009 1 109.50000 418.400000
5641 15453 6478 1 109.50000 418.400000
5809 15453 6009 1 109.50000 418.400000
5809 15453 6478 1 109.50000 418.400000
6009 15453 6478 1 109.50000 418.400000
5335 15454 5337 1 109.50000 418.400000
5335 15454 5338 1 109.50000 418.400000
5335 15454 8456 1 109.50000 418.400000
5337 15454 5338 1 109.50000 418.400000
5337 15454 8456 1 109.50000 418.400000
5338 15454 8456 1 109.50000 418.400000
3685 15455 7577 1 109.50000 418.400000
3685 15455 10155 1 109.50000 418.400000
3685 15455 10682 1 109.50000 418.400000
7577 15455 10155 1 109.50000 418.400000
7577 15455 10682 1 109.50000 418.400000
10155 15455 10682 1 109.50000 418.400000
299 15456 8917 1 109.50000 418.400000
299 15456 10019 1 109.50000 418.400000
299 15456 10683 1 109.50000 418.400000
8917 15456 10019 1 109.50000 418.400000
8917 15456 10683 1 109.50000 418.400000
10019 15456 10683 1 109.50000 418.400000
6442 15457 7947 1 109.50000 418.400000
6442 15457 9482 1 109.50000 418.400000
6442 15457 10684 1 109.50000 418.400000
7947 15457 9482 1 109.50000 418.400000
7947 15457 10684 1 109.50000 418.400000
9482 15457 10684 1 109.50000 418.400000
479 15458 1904 1 109.50000 418.400000
479 15458 9878 1 109.50000 418.400000
479 15458 9926 1 109.50000 418.400000
1904 15458 9878 1 109.50000 418.400000
1904 15458 9926 1 109.50000 418.400000
9878 15458 9926 1 109.50000 418.400000
373 15459 5077 1 109.50000 418.400000
373 15459 10029 1 109.50000 418.400000
373 15459 10687 1 109.50000 418.400000
5077 15459 10029 1 109.50000 418.400000
5077 15459 10687 1 109.50000 418.400000
10029 15459 10687 1 109.50000 418.400000
3894 15460 10688 1 109.50000 418.400000
3894 15460 10689 1 109.50000 418.400000
3894 15460 10690 1 109.50000 418.400000
10688 15460 10689 1 109.50000 418.400000
10688 15460 10690 1 109.50000 418.400000
10689 15460 10690 1 109.50000 418.400000
8704 15461 9252 1 109.50000 418.400000
8704 15461 9446 1 109.50000 418.400000
8704 15461 10691 1 109.50000 418.400000
9252 15461 9446 1 109.50000 418.400000
9252 15461 10691 1 109.50000 418.400000
9446 15461 10691 1 109.50000 418.400000
1998 15462 9413 1 109.50000 418.400000
1998 15462 10692 1 109.50000 418.400000
1998 15462 10693 1 109.50000 418.400000
9413 15462 10692 1 109.50000 418.400000
9413 15462 10693 1 109.50000 418.400000
10692 15462 10693 1 109.50000 418.400000
1530 15463 3989 1 109.50000 418.400000
1530 15463 10123 1 109.50000 418.400000
1530 15463 10186 1 109.50000 418.400000
3989 15463 10123 1 109.50000 418.400000
3989 15463 10186 1 109.50000 418.400000
10123 15463 10186 1 109.50000 418.400000
4009 15464 5954 1 109.50000 418.400000
4009 15464 6897 1 109.50000 418.400000
4009 15464 10695 1 109.50000 418.400000
5954 15464 6897 1 109.50000 418.400000
5954 15464 10695 1 109.50000 418.400000
6897 15464 10695 1 109.50000 418.400000
1821 15465 8644 1 109.50000 418.400000
1821 15465 10384 1 109.50000 418.400000
1821 15465 10696 1 109.50000 418.400000
8644 15465 10384 1 109.50000 418.400000
8644 15465 10696 1 109.50000 418.400000
10384 15465 10696 1 109.50000 418.400000
4130 15466 5075 1 109.50000 418.400000
4130 15466 8245 1 109.50000 418.400000
4130 15466 10431 1 109.50000 418.400000
5075 15466 8245 1 109.50000 418.400000
5075 15466 10431 1 109.50000 418.400000
8245 15466 10431 1 109.50000 418.400000
4180 15467 4567 1 109.50000 418.400000
4180 15467 5341 1 109.50000 418.400000
4180 15467 7693 1 109.50000 418.400000
4567 15467 5341 1 109.50000 418.400000
4567 15467 7693 1 109.50000 418.400000
5341 15467 7693 1 109.50000 418.400000
4058 15468 4830 1 109.50000 418.400000
4058 15468 5883 1 109.50000 418.400000
4058 15468 8393 1 109.50000 418.400000
4830 15468 5883 1 109.50000 418.400000
4830 15468 8393 1 109.50000 418.400000
5883 15468 8393 1 109.50000 418.400000
961 15469 5685 1 109.50000 418.400000
961 15469 9567 1 109.50000 418.400000
961 15469 10697 1 109.50000 418.400000
5685 15469 9567 1 109.50000 418.400000
5685 15469 10697 1 109.50000 418.400000
9567 15469 10697 1 109.50000 418.400000
461 15470 6007 1 109.50000 418.400000
461 15470 10175 1 109.50000 418.400000
461 15470 10179 1 109.50000 418.400000
6007 15470 10175 1 109.50000 418.400000
6007 15470 10179 1 109.50000 418.400000
10175 15470 10179 1 109.50000 418.400000
3978 15471 6273 1 109.50000 418.400000
3978 15471 9414 1 109.50000 418.400000
3978 15471 9779 1 109.50000 418.400000
6273 15471 9414 1 109.50000 418.400000
6273 15471 9779 1 109.50000 418.400000
9414 15471 9779 1 109.50000 418.400000
5048 15472 7967 1 109.50000 418.400000
5048 15472 10699 1 109.50000 418.400000
5048 15472 10700 1 109.50000 418.400000
7967 15472 10699 1 109.50000 418.400000
7967 15472 10700 1 109.50000 418.400000
10699 15472 10700 1 109.50000 418.400000
2777 15473 5662 1 109.50000 418.400000
2777 15473 6484 1 109.50000 418.400000
2777 15473 10511 1 109.50000 418.400000
5662 15473 6484 1 109.50000 418.400000
5662 15473 10511 1 109.50000 418.400000
6484 15473 10511 1 109.50000 418.400000
5111 15474 7538 1 109.50000 418.400000
5111 15474 7593 1 109.50000 418.400000
5111 15474 9932 1 109.50000 418.400000
7538 15474 7593 1 109.50000 418.400000
7538 15474 9932 1 109.50000 418.400000
7593 15474 9932 1 109.50000 418.400000
6067 15475 9537 1 109.50000 418.400000
6067 15475 10246 1 109.50000 418.400000
6067 15475 10702 1 109.50000 418.400000
9537 15475 10246 1 109.50000 418.400000
9537 15475 10702 1 109.50000 418.400000
10246 15475 10702 1 109.50000 418.400000
1561 15476 3744 1 109.50000 418.400000
1561 15476 6300 1 109.50000 418.400000
1561 15476 7179 1 109.50000 418.400000
3744 15476 6300 1 109.50000 418.400000
3744 15476 7179 1 109.50000 418.400000
6300 15476 7179 1 109.50000 418.400000
1337 15477 1456 1 109.50000 418.400000
1337 15477 2776 1 109.50000 418.400000
1337 15477 10369 1 109.50000 418.400000
1456 15477 2776 1 109.50000 418.400000
1456 15477 10369 1 109.50000 418.400000
2776 15477 10369 1 109.50000 418.400000
2220 15478 4124 1 109.50000 418.400000
2220 15478 4951 1 109.50000 418.400000
2220 15478 10418 1 109.50000 418.400000
4124 15478 4951 1 109.50000 418.400000
4124 15478 10418 1 109.50000 418.400000
4951 15478 10418 1 109.50000 418.400000
622 15479 2310 1 109.50000 418.400000
622 15479 7324 1 109.50000 418.400000
622 15479 8256 1 109.50000 418.400000
2310 15479 7324 1 109.50000 418.400000
2310 15479 8256 1 109.50000 418.400000
7324 15479 8256 1 109.50000 418.400000
133 15480 1425 1 109.50000 418.400000
133 15480 1835 1 109.50000 418.400000
133 15480 6806 1 109.50000 418.400000
1425 15480 1835 1 109.50000 418.400000
1425 15480 6806 1 109.50000 418.400000
1835 15480 6806 1 109.50000 418.400000
464 15481 1264 1 109.50000 418.400000
464 15481 10659 1 109.50000 418.400000
464 15481 10703 1 109.50000 418.400000
1264 15481 10659 1 109.50000 418.400000
1264 15481 10703 1 109.50000 418.400000
10659 15481 10703 1 109.50000 418.400000
1736 15482 2965 1 109.50000 418.400000
1736 15482 3899 1 109.50000 418.400000
1736 15482 11257 1 109.50000 418.400000
2965 15482 3899 1 109.50000 418.400000
2965 15482 11257 1 109.50000 418.400000
3899 15482 11257 1 109.50000 418.400000
1296 15483 3079 1 109.50000 418.400000
1296 15483 9801 1 109.50000 418.400000
1296 15483 10704 1 109.50000 418.400000
3079 15483 9801 1 109.50000 418.400000
3079 15483 10704 1 109.50000 418.400000
9801 15483 10704 1 109.50000 418.400000
877 15484 5480 1 109.50000 418.400000
877 15484 9879 1 109.50000 418.400000
877 15484 10352 1 109.50000 418.400000
5480 15484 9879 1 109.50000 418.400000
5480 15484 10352 1 109.50000 418.400000
9879 15484 10352 1 109.50000 418.400000
2866 15485 4702 1 109.50000 418.400000
2866 15485 9378 1 109.50000 418.400000
2866 15485 10706 1 109.50000 418.400000
4702 15485 9378 1 109.50000 418.400000
4702 15485 10706 1 109.50000 418.400000
9378 15485 10706 1 109.50000 418.400000
4500 15486 4921 1 109.50000 418.400000
4500 15486 10707 1 109.50000 418.400000
4500 15486 10708 1 109.50000 418.400000
4921 15486 10707 1 109.50000 418.400000
4921 15486 10708 1 109.50000 418.400000
10707 15486 10708 1 109.50000 418.400000
4062 15487 7873 1 109.50000 418.400000
4062 15487 9633 1 109.50000 418.400000
4062 15487 10709 1 109.50000 418.400000
7873 15487 9633 1 109.50000 418.400000
7873 15487 10709 1 109.50000 418.400000
9633 15487 10709 1 109.50000 418.400000
7323 15488 7325 1 109.50000 418.400000
7323 15488 8600 1 109.50000 418.400000
7323 15488 10423 1 109.50000 418.400000
7325 15488 8600 1 109.50000 418.400000
7325 15488 10423 1 109.50000 418.400000
8600 15488 10423 1 109.50000 418.400000
1867 15489 9005 1 109.50000 418.400000
1867 15489 10710 1 109.50000 418.400000
1867 15489 10711 1 109.50000 418.400000
9005 15489 10710 1 109.50000 418.400000
9005 15489 10711 1 109.50000 418.400000
10710 15489 10711 1 109.50000 418.400000
3642 15490 5090 1 109.50000 418.400000
3642 15490 7849 1 109.50000 418.400000
3642 15490 8562 1 109.50000 418.400000
5090 15490 7849 1 109.50000 418.400000
5090 15490 8562 1 109.50000 418.400000
7849 15490 8562 1 109.50000 418.400000
2486 15491 4394 1 109.50000 418.400000
2486 15491 10712 1 109.50000 418.400000
2486 15491 10713 1 109.50000 418.400000
4394 15491 10712 1 109.50000 418.400000
4394 15491 10713 1 109.50000 418.400000
10712 15491 10713 1 109.50000 418.400000
6011 15492 8466 1 109.50000 418.400000
6011 15492 9937 1 109.50000 418.400000
6011 15492 10571 1 109.50000 418.400000
8466 15492 9937 1 109.50000 418.400000
8466 15492 10571 1 109.50000 418.400000
9937 15492 10571 1 109.50000 418.400000
173 15493 5231 1 109.50000 418.400000
173 15493 10714 1 109.50000 418.400000
173 15493 10715 1 109.50000 418.400000
5231 15493 10714 1 109.50000 418.400000
5231 15493 10715 1 109.50000 418.400000
10714 15493 10715 1 109.50000 418.400000
511 15494 3932 1 109.50000 418.400000
511 15494 5165 1 109.50000 418.400000
511 15494 8694 1 109.50000 418.400000
3932 15494 5165 1 109.50000 418.400000
3932 15494 8694 1 109.50000 418.400000
5165 15494 8694 1 109.50000 418.400000
6625 15495 6685 1 109.50000 418.400000
6625 15495 7404 1 109.50000 418.400000
6625 15495 10716 1 109.50000 418.400000
6685 15495 7404 1 109.50000 418.400000
6685 15495 10716 1 109.50000 418.400000
7404 15495 10716 1 109.50000 418.400000
2252 15496 7293 1 109.50000 418.400000
2252 15496 8188 1 109.50000 418.400000
2252 15496 10717 1 109.50000 418.400000
7293 15496 8188 1 109.50000 418.400000
7293 15496 10717 1 109.50000 418.400000
8188 15496 10717 1 109.50000 418.400000
3136 15497 3681 1 109.50000 418.400000
3136 15497 9453 1 109.50000 418.400000
3136 15497 10718 1 109.50000 418.400000
3681 15497 9453 1 109.50000 418.400000
3681 15497 10718 1 109.50000 418.400000
9453 15497 10718 1 109.50000 418.400000
5139 15498 8589 1 109.50000 418.400000
5139 15498 9245 1 109.50000 418.400000
5139 15498 9770 1 109.50000 418.400000
8589 15498 9245 1 109.50000 418.400000
8589 15498 9770 1 109.50000 418.400000
9245 15498 9770 1 109.50000 418.400000
5371 15499 5377 1 109.50000 418.400000
5371 15499 9881 1 109.50000 418.400000
5371 15499 10719 1 109.50000 418.400000
5377 15499 9881 1 109.50000 418.400000
5377 15499 10719 1 109.50000 418.400000
9881 15499 10719 1 109.50000 418.400000
8156 15500 9741 1 109.50000 418.400000
8156 15500 10664 1 109.50000 418.400000
8156 15500 10720 1 109.50000 418.400000
9741 15500 10664 1 109.50000 418.400000
9741 15500 10720 1 109.50000 418.400000
10664 15500 10720 1 109.50000 418.400000
2947 15501 7602 1 109.50000 418.400000
2947 15501 9799 1 109.50000 418.400000
2947 15501 10721 1 109.50000 418.400000
7602 15501 9799 1 109.50000 418.400000
7602 15501 10721 1 109.50000 418.400000
9799 15501 10721 1 109.50000 418.400000
8337 15502 8730 1 109.50000 418.400000
8337 15502 8781 1 109.50000 418.400000
8337 15502 9377 1 109.50000 418.400000
8730 15502 8781 1 109.50000 418.400000
8730 15502 9377 1 109.50000 418.400000
8781 15502 9377 1 109.50000 418.400000
4002 15503 5596 1 109.50000 418.400000
4002 15503 7560 1 109.50000 418.400000
4002 15503 8140 1 109.50000 418.400000
5596 15503 7560 1 109.50000 418.400000
5596 15503 8140 1 109.50000 418.400000
7560 15503 8140 1 109.50000 418.400000
3243 15504 3864 1 109.50000 418.400000
3243 15504 7987 1 109.50000 418.400000
3243 15504 10652 1 109.50000 418.400000
3864 15504 7987 1 109.50000 418.400000
3864 15504 10652 1 109.50000 418.400000
7987 15504 10652 1 109.50000 418.400000
4311 15505 6816 1 109.50000 418.400000
4311 15505 6898 1 109.50000 418.400000
4311 15505 9315 1 109.50000 418.400000
6816 15505 6898 1 109.50000 418.400000
6816 15505 9315 1 109.50000 418.400000
6898 15505 9315 1 109.50000 418.400000
1662 15506 5791 1 109.50000 418.400000
1662 15506 10722 1 109.50000 418.400000
1662 15506 10723 1 109.50000 418.400000
5791 15506 10722 1 109.50000 418.400000
5791 15506 10723 1 109.50000 418.400000
10722 15506 10723 1 109.50000 418.400000
530 15507 6422 1 109.50000 418.400000
530 15507 8152 1 109.50000 418.400000
530 15507 10325 1 109.50000 418.400000
6422 15507 8152 1 109.50000 418.400000
6422 15507 10325 1 109.50000 418.400000
8152 15507 10325 1 109.50000 418.400000
2424 15508 3591 1 109.50000 418.400000
2424 15508 4183 1 109.50000 418.400000
2424 15508 4957 1 109.50000 418.400000
3591 15508 4183 1 109.50000 418.400000
3591 15508 4957 1 109.50000 418.400000
4183 15508 4957 1 109.50000 418.400000
471 15509 5577 1 109.50000 418.400000
471 15509 5578 1 109.50000 418.400000
471 15509 9997 1 109.50000 418.400000
5577 15509 5578 1 109.50000 418.400000
5577 15509 9997 1 109.50000 418.400000
5578 15509 9997 1 109.50000 418.400000
1762 15510 8789 1 109.50000 418.400000
1762 15510 10724 1 109.50000 418.400000
1762 15510 10725 1 109.50000 418.400000
8789 15510 10724 1 109.50000 418.400000
8789 15510 10725 1 109.50000 418.400000
10724 15510 10725 1 109.50000 418.400000
1746 15511 3030 1 109.50000 418.400000
1746 15511 3887 1 109.50000 418.400000
1746 15511 5988 1 109.50000 418.400000
3030 15511 3887 1 109.50000 418.400000
3030 15511 5988 1 109.50000 418.400000
3887 15511 5988 1 109.50000 418.400000
7792 15512 8239 1 109.50000 418.400000
7792 15512 8548 1 109.50000 418.400000
7792 15512 10726 1 109.50000 418.400000
8239 15512 8548 1 109.50000 418.400000
8239 15512 10726 1 109.50000 418.400000
8548 15512 10726 1 109.50000 418.400000
5279 15513 7203 1 109.50000 418.400000
5279 15513 8584 1 109.50000 418.400000
5279 15513 10728 1 109.50000 418.400000
7203 15513 8584 1 109.50000 418.400000
7203 15513 10728 1 109.50000 418.400000
8584 15513 10728 1 109.50000 418.400000
4036 15514 4038 1 109.50000 418.400000
4036 15514 10218 1 109.50000 418.400000
4036 15514 10302 1 109.50000 418.400000
4038 15514 10218 1 109.50000 418.400000
4038 15514 10302 1 109.50000 418.400000
10218 15514 10302 1 109.50000 418.400000
5788 15515 5806 1 109.50000 418.400000
5788 15515 10322 1 109.50000 418.400000
5788 15515 10507 1 109.50000 418.400000
5806 15515 10322 1 109.50000 418.400000
5806 15515 10507 1 109.50000 418.400000
10322 15515 10507 1 109.50000 418.400000
5984 15516 8991 1 109.50000 418.400000
5984 15516 10412 1 109.50000 418.400000
5984 15516 10729 1 109.50000 418.400000
8991 15516 10412 1 109.50000 418.400000
8991 15516 10729 1 109.50000 418.400000
10412 15516 10729 1 109.50000 418.400000
4950 15517 6705 1 109.50000 418.400000
4950 15517 7879 1 109.50000 418.400000
4950 15517 8636 1 109.50000 418.400000
6705 15517 7879 1 109.50000 418.400000
6705 15517 8636 1 109.50000 418.400000
7879 15517 8636 1 109.50000 418.400000
6541 15518 8214 1 109.50000 418.400000
6541 15518 10654 1 109.50000 418.400000
6541 15518 10730 1 109.50000 418.400000
8214 15518 10654 1 109.50000 418.400000
8214 15518 10730 1 109.50000 418.400000
10654 15518 10730 1 109.50000 418.400000
3475 15519 5583 1 109.50000 418.400000
3475 15519 7482 1 109.50000 418.400000
3475 15519 10731 1 109.50000 418.400000
5583 15519 7482 1 109.50000 418.400000
5583 15519 10731 1 109.50000 418.400000
7482 15519 10731 1 109.50000 418.400000
9324 15520 10122 1 109.50000 418.400000
9324 15520 10341 1 109.50000 418.400000
9324 15520 10732 1 109.50000 418.400000
10122 15520 10341 1 109.50000 418.400000
10122 15520 10732 1 109.50000 418.400000
10341 15520 10732 1 109.50000 418.400000
4149 15521 9655 1 109.50000 418.400000
4149 15521 10733 1 109.50000 418.400000
4149 15521 10734 1 109.50000 418.400000
9655 15521 10733 1 109.50000 418.400000
9655 15521 10734 1 109.50000 418.400000
10733 15521 10734 1 109.50000 418.400000
1053 15522 8541 1 109.50000 418.400000
1053 15522 9785 1 109.50000 418.400000
1053 15522 10735 1 109.50000 418.400000
8541 15522 9785 1 109.50000 418.400000
8541 15522 10735 1 109.50000 418.400000
9785 15522 10735 1 109.50000 418.400000
3320 15523 9340 1 109.50000 418.400000
3320 15523 10126 1 109.50000 418.400000
3320 15523 10738 1 109.50000 418.400000
9340 15523 10126 1 109.50000 418.400000
9340 15523 10738 1 109.50000 418.400000
10126 15523 10738 1 109.50000 418.400000
1724 15524 3866 1 109.50000 418.400000
1724 15524 10132 1 109.50000 418.400000
1724 15524 10739 1 109.50000 418.400000
3866 15524 10132 1 109.50000 418.400000
3866 15524 10739 1 109.50000 418.400000
10132 15524 10739 1 109.50000 418.400000
2 15525 4597 1 109.50000 418.400000
2 15525 8039 1 109.50000 418.400000
2 15525 10396 1 109.50000 418.400000
4597 15525 8039 1 109.50000 418.400000
4597 15525 10396 1 109.50000 418.400000
8039 15525 10396 1 109.50000 418.400000
550 15526 6495 1 109.50000 418.400000
550 15526 7787 1 109.50000 418.400000
550 15526 8364 1 109.50000 418.400000
6495 15526 7787 1 109.50000 418.400000
6495 15526 8364 1 109.50000 418.400000
7787 15526 8364 1 109.50000 418.400000
733 15527 2930 1 109.50000 418.400000
733 15527 9882 1 109.50000 418.400000
733 15527 10740 1 109.50000 418.400000
2930 15527 9882 1 109.50000 418.400000
2930 15527 10740 1 109.50000 418.400000
9882 15527 10740 1 109.50000 418.400000
6681 15528 10247 1 109.50000 418.400000
6681 15528 10675 1 109.50000 418.400000
6681 15528 10741 1 109.50000 418.400000
10247 15528 10675 1 109.50000 418.400000
10247 15528 10741 1 109.50000 418.400000
10675 15528 10741 1 109.50000 418.400000
2197 15529 3782 1 109.50000 418.400000
2197 15529 6115 1 109.50000 418.400000
2197 15529 10598 1 109.50000 418.400000
3782 15529 6115 1 109.50000 418.400000
3782 15529 10598 1 109.50000 418.400000
6115 15529 10598 1 109.50000 418.400000
650 15530 10633 1 109.50000 418.400000
650 15530 10745 1 109.50000 418.400000
650 15530 10746 1 109.50000 418.400000
10633 15530 10745 1 109.50000 418.400000
10633 15530 10746 1 109.50000 418.400000
10745 15530 10746 1 109.50000 418.400000
1725 15531 3269 1 109.50000 418.400000
1725 15531 9301 1 109.50000 418.400000
1725 15531 10748 1 109.50000 418.400000
3269 15531 9301 1 109.50000 418.400000
3269 15531 10748 1 109.50000 418.400000
9301 15531 10748 1 109.50000 418.400000
3630 15532 7542 1 109.50000 418.400000
3630 15532 10749 1 109.50000 418.400000
3630 15532 10877 1 109.50000 418.400000
7542 15532 10749 1 109.50000 418.400000
7542 15532 10877 1 109.50000 418.400000
10749 15532 10877 1 109.50000 418.400000
4877 15533 7437 1 109.50000 418.400000
4877 15533 8264 1 109.50000 418.400000
4877 15533 10750 1 109.50000 418.400000
7437 15533 8264 1 109.50000 418.400000
7437 15533 10750 1 109.50000 418.400000
8264 15533 10750 1 109.50000 418.400000
270 15534 683 1 109.50000 418.400000
270 15534 9323 1 109.50000 418.400000
270 15534 9569 1 109.50000 418.400000
683 15534 9323 1 109.50000 418.400000
683 15534 9569 1 109.50000 418.400000
9323 15534 9569 1 109.50000 418.400000
305 15535 5740 1 109.50000 418.400000
305 15535 7026 1 109.50000 418.400000
305 15535 8762 1 109.50000 418.400000
5740 15535 7026 1 109.50000 418.400000
5740 15535 8762 1 109.50000 418.400000
7026 15535 8762 1 109.50000 418.400000
7900 15536 9173 1 109.50000 418.400000
7900 15536 9175 1 109.50000 418.400000
7900 15536 10751 1 109.50000 418.400000
9173 15536 9175 1 109.50000 418.400000
9173 15536 10751 1 109.50000 418.400000
9175 15536 10751 1 109.50000 418.400000
7366 15537 9038 1 109.50000 418.400000
7366 15537 9311 1 109.50000 418.400000
7366 15537 9849 1 109.50000 418.400000
9038 15537 9311 1 109.50000 418.400000
9038 15537 9849 1 109.50000 418.400000
9311 15537 9849 1 109.50000 418.400000
1119 15538 4042 1 109.50000 418.400000
1119 15538 6594 1 109.50000 418.400000
1119 15538 10634 1 109.50000 418.400000
4042 15538 6594 1 109.50000 418.400000
4042 15538 10634 1 109.50000 418.400000
6594 15538 10634 1 109.50000 418.400000
276 15539 3424 1 109.50000 418.400000
276 15539 9699 1 109.50000 418.400000
276 15539 10752 1 109.50000 418.400000
3424 15539 9699 1 109.50000 418.400000
3424 15539 10752 1 109.50000 418.400000
9699 15539 10752 1 109.50000 418.400000
496 15540 8710 1 109.50000 418.400000
496 15540 10753 1 109.50000 418.400000
496 15540 10754 1 109.50000 418.400000
8710 15540 10753 1 109.50000 418.400000
8710 15540 10754 1 109.50000 418.400000
10753 15540 10754 1 109.50000 418.400000
3036 15541 4719 1 109.50000 418.400000
3036 15541 8718 1 109.50000 418.400000
3036 15541 10616 1 109.50000 418.400000
4719 15541 8718 1 109.50000 418.400000
4719 15541 10616 1 109.50000 418.400000
8718 15541 10616 1 109.50000 418.400000
1385 15542 2138 1 109.50000 418.400000
1385 15542 7884 1 109.50000 418.400000
1385 15542 10050 1 109.50000 418.400000
2138 15542 7884 1 109.50000 418.400000
2138 15542 10050 1 109.50000 418.400000
7884 15542 10050 1 109.50000 418.400000
2283 15543 2886 1 109.50000 418.400000
2283 15543 6991 1 109.50000 418.400000
2283 15543 10666 1 109.50000 418.400000
2886 15543 6991 1 109.50000 418.400000
2886 15543 10666 1 109.50000 418.400000
6991 15543 10666 1 109.50000 418.400000
2838 15544 6053 1 109.50000 418.400000
2838 15544 9459 1 109.50000 418.400000
2838 15544 10618 1 109.50000 418.400000
6053 15544 9459 1 109.50000 418.400000
6053 15544 10618 1 109.50000 418.400000
9459 15544 10618 1 109.50000 418.400000
3460 15545 5860 1 109.50000 418.400000
3460 15545 5861 1 109.50000 418.400000
3460 15545 10111 1 109.50000 418.400000
5860 15545 5861 1 109.50000 418.400000
5860 15545 10111 1 109.50000 418.400000
5861 15545 10111 1 109.50000 418.400000
8437 15546 8439 1 109.50000 418.400000
8437 15546 9746 1 109.50000 418.400000
8437 15546 10755 1 109.50000 418.400000
8439 15546 9746 1 109.50000 418.400000
8439 15546 10755 1 109.50000 418.400000
9746 15546 10755 1 109.50000 418.400000
9499 15547 9658 1 109.50000 418.400000
9499 15547 9869 1 109.50000 418.400000
9499 15547 10154 1 109.50000 418.400000
9658 15547 9869 1 109.50000 418.400000
9658 15547 10154 1 109.50000 418.400000
9869 15547 10154 1 109.50000 418.400000
1669 15548 5286 1 109.50000 418.400000
1669 15548 8885 1 109.50000 418.400000
1669 15548 9197 1 109.50000 418.400000
5286 15548 8885 1 109.50000 418.400000
5286 15548 9197 1 109.50000 418.400000
8885 15548 9197 1 109.50000 418.400000
914 15549 2729 1 109.50000 418.400000
914 15549 9964 1 109.50000 418.400000
914 15549 10759 1 109.50000 418.400000
2729 15549 9964 1 109.50000 418.400000
2729 15549 10759 1 109.50000 418.400000
9964 15549 10759 1 109.50000 418.400000
3053 15550 4235 1 109.50000 418.400000
3053 15550 7821 1 109.50000 418.400000
3053 15550 8742 1 109.50000 418.400000
4235 15550 7821 1 109.50000 418.400000
4235 15550 8742 1 109.50000 418.400000
7821 15550 8742 1 109.50000 418.400000
1592 15551 6516 1 109.50000 418.400000
1592 15551 7964 1 109.50000 418.400000
1592 15551 10760 1 109.50000 418.400000
6516 15551 7964 1 109.50000 418.400000
6516 15551 10760 1 109.50000 418.400000
7964 15551 10760 1 109.50000 418.400000
7207 15552 8624 1 109.50000 418.400000
7207 15552 10750 1 109.50000 418.400000
7207 15552 10761 1 109.50000 418.400000
8624 15552 10750 1 109.50000 418.400000
8624 15552 10761 1 109.50000 418.400000
10750 15552 10761 1 109.50000 418.400000
3422 15553 3680 1 109.50000 418.400000
3422 15553 3835 1 109.50000 418.400000
3422 15553 10762 1 109.50000 418.400000
3680 15553 3835 1 109.50000 418.400000
3680 15553 10762 1 109.50000 418.400000
3835 15553 10762 1 109.50000 418.400000
595 15554 2959 1 109.50000 418.400000
595 15554 8969 1 109.50000 418.400000
595 15554 10665 1 109.50000 418.400000
2959 15554 8969 1 109.50000 418.400000
2959 15554 10665 1 109.50000 418.400000
8969 15554 10665 1 109.50000 418.400000
3154 15555 10621 1 109.50000 418.400000
3154 15555 10723 1 109.50000 418.400000
3154 15555 10763 1 109.50000 418.400000
10621 15555 10723 1 109.50000 418.400000
10621 15555 10763 1 109.50000 418.400000
10723 15555 10763 1 109.50000 418.400000
6343 15556 6344 1 109.50000 418.400000
6343 15556 10003 1 109.50000 418.400000
6343 15556 10326 1 109.50000 418.400000
6344 15556 10003 1 109.50000 418.400000
6344 15556 10326 1 109.50000 418.400000
10003 15556 10326 1 109.50000 418.400000
1250 15557 2005 1 109.50000 418.400000
1250 15557 5598 1 109.50000 418.400000
1250 15557 10362 1 109.50000 418.400000
2005 15557 5598 1 109.50000 418.400000
2005 15557 10362 1 109.50000 418.400000
5598 15557 10362 1 109.50000 418.400000
4078 15558 5616 1 109.50000 418.400000
4078 15558 9389 1 109.50000 418.400000
4078 15558 9512 1 109.50000 418.400000
5616 15558 9389 1 109.50000 418.400000
5616 15558 9512 1 109.50000 418.400000
9389 15558 9512 1 109.50000 418.400000
9003 15559 10764 1 109.50000 418.400000
9003 15559 10765 1 109.50000 418.400000
9003 15559 10766 1 109.50000 418.400000
10764 15559 10765 1 109.50000 418.400000
10764 15559 10766 1 109.50000 418.400000
10765 15559 10766 1 109.50000 418.400000
1281 15560 7499 1 109.50000 418.400000
1281 15560 7920 1 109.50000 418.400000
1281 15560 10767 1 109.50000 418.400000
7499 15560 7920 1 109.50000 418.400000
7499 15560 10767 1 109.50000 418.400000
7920 15560 10767 1 109.50000 418.400000
7383 15561 7709 1 109.50000 418.400000
7383 15561 10517 1 109.50000 418.400000
7383 15561 10768 1 109.50000 418.400000
7709 15561 10517 1 109.50000 418.400000
7709 15561 10768 1 109.50000 418.400000
10517 15561 10768 1 109.50000 418.400000
9729 15562 9730 1 109.50000 418.400000
9729 15562 10767 1 109.50000 418.400000
9729 15562 10769 1 109.50000 418.400000
9730 15562 10767 1 109.50000 418.400000
9730 15562 10769 1 109.50000 418.400000
10767 15562 10769 1 109.50000 418.400000
3770 15563 7017 1 109.50000 418.400000
3770 15563 7421 1 109.50000 418.400000
3770 15563 8811 1 109.50000 418.400000
7017 15563 7421 1 109.50000 418.400000
7017 15563 8811 1 109.50000 418.400000
7421 15563 8811 1 109.50000 418.400000
1220 15564 1857 1 109.50000 418.400000
1220 15564 5896 1 109.50000 418.400000
1220 15564 10770 1 109.50000 418.400000
1857 15564 5896 1 109.50000 418.400000
1857 15564 10770 1 109.50000 418.400000
5896 15564 10770 1 109.50000 418.400000
1678 15565 5509 1 109.50000 418.400000
1678 15565 9739 1 109.50000 418.400000
1678 15565 10771 1 109.50000 418.400000
5509 15565 9739 1 109.50000 418.400000
5509 15565 10771 1 109.50000 418.400000
9739 15565 10771 1 109.50000 418.400000
5455 15566 6847 1 109.50000 418.400000
5455 15566 10108 1 109.50000 418.400000
5455 15566 10772 1 109.50000 418.400000
6847 15566 10108 1 109.50000 418.400000
6847 15566 10772 1 109.50000 418.400000
10108 15566 10772 1 109.50000 418.400000
2312 15567 6954 1 109.50000 418.400000
2312 15567 9607 1 109.50000 418.400000
2312 15567 10773 1 109.50000 418.400000
6954 15567 9607 1 109.50000 418.400000
6954 15567 10773 1 109.50000 418.400000
9607 15567 10773 1 109.50000 418.400000
6951 15568 7734 1 109.50000 418.400000
6951 15568 8512 1 109.50000 418.400000
6951 15568 10774 1 109.50000 418.400000
7734 15568 8512 1 109.50000 418.400000
7734 15568 10774 1 109.50000 418.400000
8512 15568 10774 1 109.50000 418.400000
2825 15569 5457 1 109.50000 418.400000
2825 15569 6729 1 109.50000 418.400000
2825 15569 10775 1 109.50000 418.400000
5457 15569 6729 1 109.50000 418.400000
5457 15569 10775 1 109.50000 418.400000
6729 15569 10775 1 109.50000 418.400000
8259 15570 10690 1 109.50000 418.400000
8259 15570 10776 1 109.50000 418.400000
8259 15570 10777 1 109.50000 418.400000
10690 15570 10776 1 109.50000 418.400000
10690 15570 10777 1 109.50000 418.400000
10776 15570 10777 1 109.50000 418.400000
3585 15571 4202 1 109.50000 418.400000
3585 15571 5899 1 109.50000 418.400000
3585 15571 9087 1 109.50000 418.400000
4202 15571 5899 1 109.50000 418.400000
4202 15571 9087 1 109.50000 418.400000
5899 15571 9087 1 109.50000 418.400000
1160 15572 1377 1 109.50000 418.400000
1160 15572 8800 1 109.50000 418.400000
1160 15572 10778 1 109.50000 418.400000
1377 15572 8800 1 109.50000 418.400000
1377 15572 10778 1 109.50000 418.400000
8800 15572 10778 1 109.50000 418.400000
2509 15573 5471 1 109.50000 418.400000
2509 15573 10779 1 109.50000 418.400000
2509 15573 10780 1 109.50000 418.400000
5471 15573 10779 1 109.50000 418.400000
5471 15573 10780 1 109.50000 418.400000
10779 15573 10780 1 109.50000 418.400000
2427 15574 5908 1 109.50000 418.400000
2427 15574 6220 1 109.50000 418.400000
2427 15574 10765 1 109.50000 418.400000
5908 15574 6220 1 109.50000 418.400000
5908 15574 10765 1 109.50000 418.400000
6220 15574 10765 1 109.50000 418.400000
2571 15575 6785 1 109.50000 418.400000
2571 15575 6787 1 109.50000 418.400000
2571 15575 7329 1 109.50000 418.400000
6785 15575 6787 1 109.50000 418.400000
6785 15575 7329 1 109.50000 418.400000
6787 15575 7329 1 109.50000 418.400000
2924 15576 6549 1 109.50000 418.400000
2924 15576 7187 1 109.50000 418.400000
2924 15576 9112 1 109.50000 418.400000
6549 15576 7187 1 109.50000 418.400000
6549 15576 9112 1 109.50000 418.400000
7187 15576 9112 1 109.50000 418.400000
2065 15577 4665 1 109.50000 418.400000
2065 15577 9752 1 109.50000 418.400000
2065 15577 10781 1 109.50000 418.400000
4665 15577 9752 1 109.50000 418.400000
4665 15577 10781 1 109.50000 418.400000
9752 15577 10781 1 109.50000 418.400000
1238 15578 3147 1 109.50000 418.400000
1238 15578 7851 1 109.50000 418.400000
1238 15578 7852 1 109.50000 418.400000
3147 15578 7851 1 109.50000 418.400000
3147 15578 7852 1 109.50000 418.400000
7851 15578 7852 1 109.50000 418.400000
3451 15579 3942 1 109.50000 418.400000
3451 15579 6513 1 109.50000 418.400000
3451 15579 8305 1 109.50000 418.400000
3942 15579 6513 1 109.50000 418.400000
3942 15579 8305 1 109.50000 418.400000
6513 15579 8305 1 109.50000 418.400000
1667 15580 10327 1 109.50000 418.400000
1667 15580 10782 1 109.50000 418.400000
1667 15580 10783 1 109.50000 418.400000
10327 15580 10782 1 109.50000 418.400000
10327 15580 10783 1 109.50000 418.400000
10782 15580 10783 1 109.50000 418.400000
2476 15581 8099 1 109.50000 418.400000
2476 15581 9987 1 109.50000 418.400000
2476 15581 10584 1 109.50000 418.400000
8099 15581 9987 1 109.50000 418.400000
8099 15581 10584 1 109.50000 418.400000
9987 15581 10584 1 109.50000 418.400000
1292 15582 5036 1 109.50000 418.400000
1292 15582 8590 1 109.50000 418.400000
1292 15582 9953 1 109.50000 418.400000
5036 15582 8590 1 109.50000 418.400000
5036 15582 9953 1 109.50000 418.400000
8590 15582 9953 1 109.50000 418.400000
3127 15583 9527 1 109.50000 418.400000
3127 15583 9949 1 109.50000 418.400000
3127 15583 10784 1 109.50000 418.400000
9527 15583 9949 1 109.50000 418.400000
9527 15583 10784 1 109.50000 418.400000
9949 15583 10784 1 109.50000 418.400000
6269 15584 7016 1 109.50000 418.400000
6269 15584 8651 1 109.50000 418.400000
6269 15584 8832 1 109.50000 418.400000
7016 15584 8651 1 109.50000 418.400000
7016 15584 8832 1 109.50000 418.400000
8651 15584 8832 1 109.50000 418.400000
48 15585 3530 1 109.50000 418.400000
48 15585 7660 1 109.50000 418.400000
48 15585 10474 1 109.50000 418.400000
3530 15585 7660 1 109.50000 418.400000
3530 15585 10474 1 109.50000 418.400000
7660 15585 10474 1 109.50000 418.400000
5145 15586 10752 1 109.50000 418.400000
5145 15586 10785 1 109.50000 418.400000
5145 15586 10786 1 109.50000 418.400000
10752 15586 10785 1 109.50000 418.400000
10752 15586 10786 1 109.50000 418.400000
10785 15586 10786 1 109.50000 418.400000
239 15587 3133 1 109.50000 418.400000
239 15587 8794 1 109.50000 418.400000
239 15587 11310 1 109.50000 418.400000
3133 15587 8794 1 109.50000 418.400000
3133 15587 11310 1 109.50000 418.400000
8794 15587 11310 1 109.50000 418.400000
405 15588 9936 1 109.50000 418.400000
405 15588 10224 1 109.50000 418.400000
405 15588 10578 1 109.50000 418.400000
9936 15588 10224 1 109.50000 418.400000
9936 15588 10578 1 109.50000 418.400000
10224 15588 10578 1 109.50000 418.400000
5342 15589 9497 1 109.50000 418.400000
5342 15589 10782 1 109.50000 418.400000
5342 15589 10787 1 109.50000 418.400000
9497 15589 10782 1 109.50000 418.400000
9497 15589 10787 1 109.50000 418.400000
10782 15589 10787 1 109.50000 418.400000
220 15590 3423 1 109.50000 418.400000
220 15590 8220 1 109.50000 418.400000
220 15590 9328 1 109.50000 418.400000
3423 15590 8220 1 109.50000 418.400000
3423 15590 9328 1 109.50000 418.400000
8220 15590 9328 1 109.50000 418.400000
2558 15591 8416 1 109.50000 418.400000
2558 15591 8968 1 109.50000 418.400000
2558 15591 10740 1 109.50000 418.400000
8416 15591 8968 1 109.50000 418.400000
8416 15591 10740 1 109.50000 418.400000
8968 15591 10740 1 109.50000 418.400000
937 15592 6733 1 109.50000 418.400000
937 15592 9652 1 109.50000 418.400000
937 15592 11328 1 109.50000 418.400000
6733 15592 9652 1 109.50000 418.400000
6733 15592 11328 1 109.50000 418.400000
9652 15592 11328 1 109.50000 418.400000
2569 15593 9993 1 109.50000 418.400000
2569 15593 10450 1 109.50000 418.400000
2569 15593 11317 1 109.50000 418.400000
9993 15593 10450 1 109.50000 418.400000
9993 15593 11317 1 109.50000 418.400000
10450 15593 11317 1 109.50000 418.400000
6473 15594 9153 1 109.50000 418.400000
6473 15594 10099 1 109.50000 418.400000
6473 15594 10788 1 109.50000 418.400000
9153 15594 10099 1 109.50000 418.400000
9153 15594 10788 1 109.50000 418.400000
10099 15594 10788 1 109.50000 418.400000
6859 15595 7753 1 109.50000 418.400000
6859 15595 9027 1 109.50000 418.400000
6859 15595 9613 1 109.50000 418.400000
7753 15595 9027 1 109.50000 418.400000
7753 15595 9613 1 109.50000 418.400000
9027 15595 9613 1 109.50000 418.400000
4518 15596 8633 1 109.50000 418.400000
4518 15596 10783 1 109.50000 418.400000
4518 15596 10789 1 109.50000 418.400000
8633 15596 10783 1 109.50000 418.400000
8633 15596 10789 1 109.50000 418.400000
10783 15596 10789 1 109.50000 418.400000
357 15597 6595 1 109.50000 418.400000
357 15597 10790 1 109.50000 418.400000
357 15597 11142 1 109.50000 418.400000
6595 15597 10790 1 109.50000 418.400000
6595 15597 11142 1 109.50000 418.400000
10790 15597 11142 1 109.50000 418.400000
3869 15598 8207 1 109.50000 418.400000
3869 15598 9952 1 109.50000 418.400000
3869 15598 10791 1 109.50000 418.400000
8207 15598 9952 1 109.50000 418.400000
8207 15598 10791 1 109.50000 418.400000
9952 15598 10791 1 109.50000 418.400000
1589 15599 4739 1 109.50000 418.400000
1589 15599 10792 1 109.50000 418.400000
1589 15599 10793 1 109.50000 418.400000
4739 15599 10792 1 109.50000 418.400000
4739 15599 10793 1 109.50000 418.400000
10792 15599 10793 1 109.50000 418.400000
9555 15600 9944 1 109.50000 418.400000
9555 15600 10237 1 109.50000 418.400000
9555 15600 10794 1 109.50000 418.400000
9944 15600 10237 1 109.50000 418.400000
9944 15600 10794 1 109.50000 418.400000
10237 15600 10794 1 109.50000 418.400000
1013 15601 7856 1 109.50000 418.400000
1013 15601 10399 1 109.50000 418.400000
1013 15601 10796 1 109.50000 418.400000
7856 15601 10399 1 109.50000 418.400000
7856 15601 10796 1 109.50000 418.400000
10399 15601 10796 1 109.50000 418.400000
7811 15602 9697 1 109.50000 418.400000
7811 15602 10797 1 109.50000 418.400000
7811 15602 10798 1 109.50000 418.400000
9697 15602 10797 1 109.50000 418.400000
9697 15602 10798 1 109.50000 418.400000
10797 15602 10798 1 109.50000 418.400000
4063 15603 8707 1 109.50000 418.400000
4063 15603 10461 1 109.50000 418.400000
4063 15603 10549 1 109.50000 418.400000
8707 15603 10461 1 109.50000 418.400000
8707 15603 10549 1 109.50000 418.400000
10461 15603 10549 1 109.50000 418.400000
188 15604 9410 1 109.50000 418.400000
188 15604 9711 1 109.50000 418.400000
188 15604 10799 1 109.50000 418.400000
9410 15604 9711 1 109.50000 418.400000
9410 15604 10799 1 109.50000 418.400000
9711 15604 10799 1 109.50000 418.400000
6900 15605 7459 1 109.50000 418.400000
6900 15605 7668 1 109.50000 418.400000
6900 15605 8008 1 109.50000 418.400000
7459 15605 7668 1 109.50000 418.400000
7459 15605 8008 1 109.50000 418.400000
7668 15605 8008 1 109.50000 418.400000
2784 15606 2905 1 109.50000 418.400000
2784 15606 6807 1 109.50000 418.400000
2784 15606 8728 1 109.50000 418.400000
2905 15606 6807 1 109.50000 418.400000
2905 15606 8728 1 109.50000 418.400000
6807 15606 8728 1 109.50000 418.400000
8223 15607 9616 1 109.50000 418.400000
8223 15607 10800 1 109.50000 418.400000
8223 15607 10801 1 109.50000 418.400000
9616 15607 10800 1 109.50000 418.400000
9616 15607 10801 1 109.50000 418.400000
10800 15607 10801 1 109.50000 418.400000
1438 15608 9146 1 109.50000 418.400000
1438 15608 9147 1 109.50000 418.400000
1438 15608 9148 1 109.50000 418.400000
9146 15608 9147 1 109.50000 418.400000
9146 15608 9148 1 109.50000 418.400000
9147 15608 9148 1 109.50000 418.400000
6879 15609 7011 1 109.50000 418.400000
6879 15609 7744 1 109.50000 418.400000
6879 15609 10547 1 109.50000 418.400000
7011 15609 7744 1 109.50000 418.400000
7011 15609 10547 1 109.50000 418.400000
7744 15609 10547 1 109.50000 418.400000
737 15610 6181 1 109.50000 418.400000
737 15610 6248 1 109.50000 418.400000
737 15610 7720 1 109.50000 418.400000
6181 15610 6248 1 109.50000 418.400000
6181 15610 7720 1 109.50000 418.400000
6248 15610 7720 1 109.50000 418.400000
631 15611 1244 1 109.50000 418.400000
631 15611 8077 1 109.50000 418.400000
631 15611 8982 1 109.50000 418.400000
1244 15611 8077 1 109.50000 418.400000
1244 15611 8982 1 109.50000 418.400000
8077 15611 8982 1 109.50000 418.400000
332 15612 1050 1 109.50000 418.400000
332 15612 8787 1 109.50000 418.400000
332 15612 10803 1 109.50000 418.400000
1050 15612 8787 1 109.50000 418.400000
1050 15612 10803 1 109.50000 418.400000
8787 15612 10803 1 109.50000 418.400000
5343 15613 6942 1 109.50000 418.400000
5343 15613 7676 1 109.50000 418.400000
5343 15613 10805 1 109.50000 418.400000
6942 15613 7676 1 109.50000 418.400000
6942 15613 10805 1 109.50000 418.400000
7676 15613 10805 1 109.50000 418.400000
5565 15614 6070 1 109.50000 418.400000
5565 15614 6548 1 109.50000 418.400000
5565 15614 8222 1 109.50000 418.400000
6070 15614 6548 1 109.50000 418.400000
6070 15614 8222 1 109.50000 418.400000
6548 15614 8222 1 109.50000 418.400000
1694 15615 3638 1 109.50000 418.400000
1694 15615 9215 1 109.50000 418.400000
1694 15615 10806 1 109.50000 418.400000
3638 15615 9215 1 109.50000 418.400000
3638 15615 10806 1 109.50000 418.400000
9215 15615 10806 1 109.50000 418.400000
4129 15616 4944 1 109.50000 418.400000
4129 15616 8746 1 109.50000 418.400000
4129 15616 10605 1 109.50000 418.400000
4944 15616 8746 1 109.50000 418.400000
4944 15616 10605 1 109.50000 418.400000
8746 15616 10605 1 109.50000 418.400000
2227 15617 2916 1 109.50000 418.400000
2227 15617 9156 1 109.50000 418.400000
2227 15617 9326 1 109.50000 418.400000
2916 15617 9156 1 109.50000 418.400000
2916 15617 9326 1 109.50000 418.400000
9156 15617 9326 1 109.50000 418.400000
2537 15618 5170 1 109.50000 418.400000
2537 15618 10625 1 109.50000 418.400000
2537 15618 10807 1 109.50000 418.400000
5170 15618 10625 1 109.50000 418.400000
5170 15618 10807 1 109.50000 418.400000
10625 15618 10807 1 109.50000 418.400000
8174 15619 9670 1 109.50000 418.400000
8174 15619 10400 1 109.50000 418.400000
8174 15619 10808 1 109.50000 418.400000
9670 15619 10400 1 109.50000 418.400000
9670 15619 10808 1 109.50000 418.400000
10400 15619 10808 1 109.50000 418.400000
8107 15620 10521 1 109.50000 418.400000
8107 15620 10809 1 109.50000 418.400000
8107 15620 10810 1 109.50000 418.400000
10521 15620 10809 1 109.50000 418.400000
10521 15620 10810 1 109.50000 418.400000
10809 15620 10810 1 109.50000 418.400000
1894 15621 2390 1 109.50000 418.400000
1894 15621 6700 1 109.50000 418.400000
1894 15621 8457 1 109.50000 418.400000
2390 15621 6700 1 109.50000 418.400000
2390 15621 8457 1 109.50000 418.400000
6700 15621 8457 1 109.50000 418.400000
3622 15622 3662 1 109.50000 418.400000
3622 15622 6627 1 109.50000 418.400000
3622 15622 9615 1 109.50000 418.400000
3662 15622 6627 1 109.50000 418.400000
3662 15622 9615 1 109.50000 418.400000
6627 15622 9615 1 109.50000 418.400000
988 15623 6614 1 109.50000 418.400000
988 15623 9531 1 109.50000 418.400000
988 15623 10811 1 109.50000 418.400000
6614 15623 9531 1 109.50000 418.400000
6614 15623 10811 1 109.50000 418.400000
9531 15623 10811 1 109.50000 418.400000
6042 15624 6356 1 109.50000 418.400000
6042 15624 9834 1 109.50000 418.400000
6042 15624 10189 1 109.50000 418.400000
6356 15624 9834 1 109.50000 418.400000
6356 15624 10189 1 109.50000 418.400000
9834 15624 10189 1 109.50000 418.400000
5379 15625 9715 1 109.50000 418.400000
5379 15625 10448 1 109.50000 418.400000
5379 15625 10812 1 109.50000 418.400000
9715 15625 10448 1 109.50000 418.400000
9715 15625 10812 1 109.50000 418.400000
10448 15625 10812 1 109.50000 418.400000
6517 15626 6519 1 109.50000 418.400000
6517 15626 7094 1 109.50000 418.400000
6517 15626 11294 1 109.50000 418.400000
6519 15626 7094 1 109.50000 418.400000
6519 15626 11294 1 109.50000 418.400000
7094 15626 11294 1 109.50000 418.400000
3581 15627 5810 1 109.50000 418.400000
3581 15627 9248 1 109.50000 418.400000
3581 15627 9416 1 109.50000 418.400000
5810 15627 9248 1 109.50000 418.400000
5810 15627 9416 1 109.50000 418.400000
9248 15627 9416 1 109.50000 418.400000
8138 15628 8514 1 109.50000 418.400000
8138 15628 9860 1 109.50000 418.400000
8138 15628 10324 1 109.50000 418.400000
8514 15628 9860 1 109.50000 418.400000
8514 15628 10324 1 109.50000 418.400000
9860 15628 10324 1 109.50000 418.400000
6826 15629 7396 1 109.50000 418.400000
6826 15629 10105 1 109.50000 418.400000
6826 15629 10813 1 109.50000 418.400000
7396 15629 10105 1 109.50000 418.400000
7396 15629 10813 1 109.50000 418.400000
10105 15629 10813 1 109.50000 418.400000
3689 15630 6670 1 109.50000 418.400000
3689 15630 9731 1 109.50000 418.400000
3689 15630 10200 1 109.50000 418.400000
6670 15630 9731 1 109.50000 418.400000
6670 15630 10200 1 109.50000 418.400000
9731 15630 10200 1 109.50000 418.400000
7387 15631 8750 1 109.50000 418.400000
7387 15631 10541 1 109.50000 418.400000
7387 15631 10725 1 109.50000 418.400000
8750 15631 10541 1 109.50000 418.400000
8750 15631 10725 1 109.50000 418.400000
10541 15631 10725 1 109.50000 418.400000
7 15632 7221 1 109.50000 418.400000
7 15632 10404 1 109.50000 418.400000
7 15632 10667 1 109.50000 418.400000
7221 15632 10404 1 109.50000 418.400000
7221 15632 10667 1 109.50000 418.400000
10404 15632 10667 1 109.50000 418.400000
802 15633 4611 1 109.50000 418.400000
802 15633 8038 1 109.50000 418.400000
802 15633 10472 1 109.50000 418.400000
4611 15633 8038 1 109.50000 418.400000
4611 15633 10472 1 109.50000 418.400000
8038 15633 10472 1 109.50000 418.400000
1122 15634 6507 1 109.50000 418.400000
1122 15634 10259 1 109.50000 418.400000
1122 15634 10815 1 109.50000 418.400000
6507 15634 10259 1 109.50000 418.400000
6507 15634 10815 1 109.50000 418.400000
10259 15634 10815 1 109.50000 418.400000
2016 15635 4308 1 109.50000 418.400000
2016 15635 9290 1 109.50000 418.400000
2016 15635 10816 1 109.50000 418.400000
4308 15635 9290 1 109.50000 418.400000
4308 15635 10816 1 109.50000 418.400000
9290 15635 10816 1 109.50000 418.400000
1349 15636 3639 1 109.50000 418.400000
1349 15636 5176 1 109.50000 418.400000
1349 15636 9973 1 109.50000 418.400000
3639 15636 5176 1 109.50000 418.400000
3639 15636 9973 1 109.50000 418.400000
5176 15636 9973 1 109.50000 418.400000
6223 15637 8596 1 109.50000 418.400000
6223 15637 10817 1 109.50000 418.400000
6223 15637 10818 1 109.50000 418.400000
8596 15637 10817 1 109.50000 418.400000
8596 15637 10818 1 109.50000 418.400000
10817 15637 10818 1 109.50000 418.400000
1895 15638 9507 1 109.50000 418.400000
1895 15638 9984 1 109.50000 418.400000
1895 15638 10161 1 109.50000 418.400000
9507 15638 9984 1 109.50000 418.400000
9507 15638 10161 1 109.50000 418.400000
9984 15638 10161 1 109.50000 418.400000
2754 15639 5618 1 109.50000 418.400000
2754 15639 8708 1 109.50000 418.400000
2754 15639 10819 1 109.50000 418.400000
5618 15639 8708 1 109.50000 418.400000
5618 15639 10819 1 109.50000 418.400000
8708 15639 10819 1 109.50000 418.400000
6745 15640 9154 1 109.50000 418.400000
6745 15640 9391 1 109.50000 418.400000
6745 15640 10100 1 109.50000 418.400000
9154 15640 9391 1 109.50000 418.400000
9154 15640 10100 1 109.50000 418.400000
9391 15640 10100 1 109.50000 418.400000
540 15641 835 1 109.50000 418.400000
540 15641 10231 1 109.50000 418.400000
540 15641 10820 1 109.50000 418.400000
835 15641 10231 1 109.50000 418.400000
835 15641 10820 1 109.50000 418.400000
10231 15641 10820 1 109.50000 418.400000
211 15642 2609 1 109.50000 418.400000
211 15642 7355 1 109.50000 418.400000
211 15642 9361 1 109.50000 418.400000
2609 15642 7355 1 109.50000 418.400000
2609 15642 9361 1 109.50000 418.400000
7355 15642 9361 1 109.50000 418.400000
1612 15643 1838 1 109.50000 418.400000
1612 15643 4372 1 109.50000 418.400000
1612 15643 6162 1 109.50000 418.400000
1838 15643 4372 1 109.50000 418.400000
1838 15643 6162 1 109.50000 418.400000
4372 15643 6162 1 109.50000 418.400000
532 15644 5600 1 109.50000 418.400000
532 15644 6344 1 109.50000 418.400000
532 15644 6360 1 109.50000 418.400000
5600 15644 6344 1 109.50000 418.400000
5600 15644 6360 1 109.50000 418.400000
6344 15644 6360 1 109.50000 418.400000
9306 15645 9594 1 109.50000 418.400000
9306 15645 10823 1 109.50000 418.400000
9306 15645 10824 1 109.50000 418.400000
9594 15645 10823 1 109.50000 418.400000
9594 15645 10824 1 109.50000 418.400000
10823 15645 10824 1 109.50000 418.400000
6272 15646 9914 1 109.50000 418.400000
6272 15646 10479 1 109.50000 418.400000
6272 15646 10825 1 109.50000 418.400000
9914 15646 10479 1 109.50000 418.400000
9914 15646 10825 1 109.50000 418.400000
10479 15646 10825 1 109.50000 418.400000
2635 15647 3456 1 109.50000 418.400000
2635 15647 9961 1 109.50000 418.400000
2635 15647 10826 1 109.50000 418.400000
3456 15647 9961 1 109.50000 418.400000
3456 15647 10826 1 109.50000 418.400000
9961 15647 10826 1 109.50000 418.400000
3276 15648 6908 1 109.50000 418.400000
3276 15648 8179 1 109.50000 418.400000
3276 15648 10546 1 109.50000 418.400000
6908 15648 8179 1 109.50000 418.400000
6908 15648 10546 1 109.50000 418.400000
8179 15648 10546 1 109.50000 418.400000
4781 15649 4783 1 109.50000 418.400000
4781 15649 9045 1 109.50000 418.400000
4781 15649 10720 1 109.50000 418.400000
4783 15649 9045 1 109.50000 418.400000
4783 15649 10720 1 109.50000 418.400000
9045 15649 10720 1 109.50000 418.400000
6605 15650 7983 1 109.50000 418.400000
6605 15650 9637 1 109.50000 418.400000
6605 15650 10499 1 109.50000 418.400000
7983 15650 9637 1 109.50000 418.400000
7983 15650 10499 1 109.50000 418.400000
9637 15650 10499 1 109.50000 418.400000
1411 15651 4673 1 109.50000 418.400000
1411 15651 6860 1 109.50000 418.400000
1411 15651 8689 1 109.50000 418.400000
4673 15651 6860 1 109.50000 418.400000
4673 15651 8689 1 109.50000 418.400000
6860 15651 8689 1 109.50000 418.400000
5252 15652 6953 1 109.50000 418.400000
5252 15652 7774 1 109.50000 418.400000
5252 15652 7776 1 109.50000 418.400000
6953 15652 7774 1 109.50000 418.400000
6953 15652 7776 1 109.50000 418.400000
7774 15652 7776 1 109.50000 418.400000
5153 15653 9356 1 109.50000 418.400000
5153 15653 10268 1 109.50000 418.400000
5153 15653 10588 1 109.50000 418.400000
9356 15653 10268 1 109.50000 418.400000
9356 15653 10588 1 109.50000 418.400000
10268 15653 10588 1 109.50000 418.400000
1023 15654 4198 1 109.50000 418.400000
1023 15654 5365 1 109.50000 418.400000
1023 15654 6261 1 109.50000 418.400000
4198 15654 5365 1 109.50000 418.400000
4198 15654 6261 1 109.50000 418.400000
5365 15654 6261 1 109.50000 418.400000
874 15655 7003 1 109.50000 418.400000
874 15655 7121 1 109.50000 418.400000
874 15655 7760 1 109.50000 418.400000
7003 15655 7121 1 109.50000 418.400000
7003 15655 7760 1 109.50000 418.400000
7121 15655 7760 1 109.50000 418.400000
4450 15656 9493 1 109.50000 418.400000
4450 15656 9517 1 109.50000 418.400000
4450 15656 10829 1 109.50000 418.400000
9493 15656 9517 1 109.50000 418.400000
9493 15656 10829 1 109.50000 418.400000
9517 15656 10829 1 109.50000 418.400000
2516 15657 2744 1 109.50000 418.400000
2516 15657 9283 1 109.50000 418.400000
2516 15657 9795 1 109.50000 418.400000
2744 15657 9283 1 109.50000 418.400000
2744 15657 9795 1 109.50000 418.400000
9283 15657 9795 1 109.50000 418.400000
2949 15658 5368 1 109.50000 418.400000
2949 15658 9710 1 109.50000 418.400000
2949 15658 9728 1 109.50000 418.400000
5368 15658 9710 1 109.50000 418.400000
5368 15658 9728 1 109.50000 418.400000
9710 15658 9728 1 109.50000 418.400000
4573 15659 5767 1 109.50000 418.400000
4573 15659 7701 1 109.50000 418.400000
4573 15659 10830 1 109.50000 418.400000
5767 15659 7701 1 109.50000 418.400000
5767 15659 10830 1 109.50000 418.400000
7701 15659 10830 1 109.50000 418.400000
2992 15660 2993 1 109.50000 418.400000
2992 15660 2994 1 109.50000 418.400000
2992 15660 2995 1 109.50000 418.400000
2993 15660 2994 1 109.50000 418.400000
2993 15660 2995 1 109.50000 418.400000
2994 15660 2995 1 109.50000 418.400000
1060 15661 1062 1 109.50000 418.400000
1060 15661 9158 1 109.50000 418.400000
1060 15661 9327 1 109.50000 418.400000
1062 15661 9158 1 109.50000 418.400000
1062 15661 9327 1 109.50000 418.400000
9158 15661 9327 1 109.50000 418.400000
9258 15662 9632 1 109.50000 418.400000
9258 15662 9633 1 109.50000 418.400000
9258 15662 10831 1 109.50000 418.400000
9632 15662 9633 1 109.50000 418.400000
9632 15662 10831 1 109.50000 418.400000
9633 15662 10831 1 109.50000 418.400000
613 15663 9277 1 109.50000 418.400000
613 15663 10785 1 109.50000 418.400000
613 15663 10832 1 109.50000 418.400000
9277 15663 10785 1 109.50000 418.400000
9277 15663 10832 1 109.50000 418.400000
10785 15663 10832 1 109.50000 418.400000
3624 15664 3625 1 109.50000 418.400000
3624 15664 5320 1 109.50000 418.400000
3624 15664 7063 1 109.50000 418.400000
3625 15664 5320 1 109.50000 418.400000
3625 15664 7063 1 109.50000 418.400000
5320 15664 7063 1 109.50000 418.400000
1713 15665 9018 1 109.50000 418.400000
1713 15665 10491 1 109.50000 418.400000
1713 15665 10833 1 109.50000 418.400000
9018 15665 10491 1 109.50000 418.400000
9018 15665 10833 1 109.50000 418.400000
10491 15665 10833 1 109.50000 418.400000
2779 15666 6399 1 109.50000 418.400000
2779 15666 9815 1 109.50000 418.400000
2779 15666 10392 1 109.50000 418.400000
6399 15666 9815 1 109.50000 418.400000
6399 15666 10392 1 109.50000 418.400000
9815 15666 10392 1 109.50000 418.400000
6455 15667 8047 1 109.50000 418.400000
6455 15667 10834 1 109.50000 418.400000
6455 15667 10835 1 109.50000 418.400000
8047 15667 10834 1 109.50000 418.400000
8047 15667 10835 1 109.50000 418.400000
10834 15667 10835 1 109.50000 418.400000
2702 15668 6941 1 109.50000 418.400000
2702 15668 8650 1 109.50000 418.400000
2702 15668 10787 1 109.50000 418.400000
6941 15668 8650 1 109.50000 418.400000
6941 15668 10787 1 109.50000 418.400000
8650 15668 10787 1 109.50000 418.400000
2688 15669 4833 1 109.50000 418.400000
2688 15669 10836 1 109.50000 418.400000
2688 15669 10837 1 109.50000 418.400000
4833 15669 10836 1 109.50000 418.400000
4833 15669 10837 1 109.50000 418.400000
10836 15669 10837 1 109.50000 418.400000
7289 15670 7291 1 109.50000 418.400000
7289 15670 9510 1 109.50000 418.400000
7289 15670 10838 1 109.50000 418.400000
7291 15670 9510 1 109.50000 418.400000
7291 15670 10838 1 109.50000 418.400000
9510 15670 10838 1 109.50000 418.400000
2649 15671 8048 1 109.50000 418.400000
2649 15671 8580 1 109.50000 418.400000
2649 15671 9272 1 109.50000 418.400000
8048 15671 8580 1 109.50000 418.400000
8048 15671 9272 1 109.50000 418.400000
8580 15671 9272 1 109.50000 418.400000
4501 15672 10840 1 109.50000 418.400000
4501 15672 10841 1 109.50000 418.400000
4501 15672 11305 1 109.50000 418.400000
10840 15672 10841 1 109.50000 418.400000
10840 15672 11305 1 109.50000 418.400000
10841 15672 11305 1 109.50000 418.400000
4612 15673 7935 1 109.50000 418.400000
4612 15673 10842 1 109.50000 418.400000
4612 15673 10843 1 109.50000 418.400000
7935 15673 10842 1 109.50000 418.400000
7935 15673 10843 1 109.50000 418.400000
10842 15673 10843 1 109.50000 418.400000
4527 15674 8423 1 109.50000 418.400000
4527 15674 10339 1 109.50000 418.400000
4527 15674 10340 1 109.50000 418.400000
8423 15674 10339 1 109.50000 418.400000
8423 15674 10340 1 109.50000 418.400000
10339 15674 10340 1 109.50000 418.400000
5082 15675 6147 1 109.50000 418.400000
5082 15675 9168 1 109.50000 418.400000
5082 15675 10701 1 109.50000 418.400000
6147 15675 9168 1 109.50000 418.400000
6147 15675 10701 1 109.50000 418.400000
9168 15675 10701 1 109.50000 418.400000
2548 15676 8998 1 109.50000 418.400000
2548 15676 9337 1 109.50000 418.400000
2548 15676 10844 1 109.50000 418.400000
8998 15676 9337 1 109.50000 418.400000
8998 15676 10844 1 109.50000 418.400000
9337 15676 10844 1 109.50000 418.400000
1573 15677 9266 1 109.50000 418.400000
1573 15677 10845 1 109.50000 418.400000
1573 15677 10846 1 109.50000 418.400000
9266 15677 10845 1 109.50000 418.400000
9266 15677 10846 1 109.50000 418.400000
10845 15677 10846 1 109.50000 418.400000
1942 15678 6428 1 109.50000 418.400000
1942 15678 9150 1 109.50000 418.400000
1942 15678 10847 1 109.50000 418.400000
6428 15678 9150 1 109.50000 418.400000
6428 15678 10847 1 109.50000 418.400000
9150 15678 10847 1 109.50000 418.400000
1973 15679 1974 1 109.50000 418.400000
1973 15679 10405 1 109.50000 418.400000
1973 15679 10773 1 109.50000 418.400000
1974 15679 10405 1 109.50000 418.400000
1974 15679 10773 1 109.50000 418.400000
10405 15679 10773 1 109.50000 418.400000
6475 15680 6744 1 109.50000 418.400000
6475 15680 10710 1 109.50000 418.400000
6475 15680 10848 1 109.50000 418.400000
6744 15680 10710 1 109.50000 418.400000
6744 15680 10848 1 109.50000 418.400000
10710 15680 10848 1 109.50000 418.400000
3254 15681 5660 1 109.50000 418.400000
3254 15681 6674 1 109.50000 418.400000
3254 15681 10731 1 109.50000 418.400000
5660 15681 6674 1 109.50000 418.400000
5660 15681 10731 1 109.50000 418.400000
6674 15681 10731 1 109.50000 418.400000
434 15682 8884 1 109.50000 418.400000
434 15682 9954 1 109.50000 418.400000
434 15682 10564 1 109.50000 418.400000
8884 15682 9954 1 109.50000 418.400000
8884 15682 10564 1 109.50000 418.400000
9954 15682 10564 1 109.50000 418.400000
76 15683 2970 1 109.50000 418.400000
76 15683 5209 1 109.50000 418.400000
76 15683 10849 1 109.50000 418.400000
2970 15683 5209 1 109.50000 418.400000
2970 15683 10849 1 109.50000 418.400000
5209 15683 10849 1 109.50000 418.400000
7024 15684 7076 1 109.50000 418.400000
7024 15684 9866 1 109.50000 418.400000
7024 15684 10267 1 109.50000 418.400000
7076 15684 9866 1 109.50000 418.400000
7076 15684 10267 1 109.50000 418.400000
9866 15684 10267 1 109.50000 418.400000
632 15685 3895 1 109.50000 418.400000
632 15685 10192 1 109.50000 418.400000
632 15685 10839 1 109.50000 418.400000
3895 15685 10192 1 109.50000 418.400000
3895 15685 10839 1 109.50000 418.400000
10192 15685 10839 1 109.50000 418.400000
89 15686 929 1 109.50000 418.400000
89 15686 4657 1 109.50000 418.400000
89 15686 10708 1 109.50000 418.400000
929 15686 4657 1 109.50000 418.400000
929 15686 10708 1 109.50000 418.400000
4657 15686 10708 1 109.50000 418.400000
3050 15687 5924 1 109.50000 418.400000
3050 15687 7157 1 109.50000 418.400000
3050 15687 9365 1 109.50000 418.400000
5924 15687 7157 1 109.50000 418.400000
5924 15687 9365 1 109.50000 418.400000
7157 15687 9365 1 109.50000 418.400000
764 15688 2808 1 109.50000 418.400000
764 15688 10850 1 109.50000 418.400000
764 15688 10851 1 109.50000 418.400000
2808 15688 10850 1 109.50000 418.400000
2808 15688 10851 1 109.50000 418.400000
10850 15688 10851 1 109.50000 418.400000
444 15689 1081 1 109.50000 418.400000
444 15689 6772 1 109.50000 418.400000
444 15689 10470 1 109.50000 418.400000
1081 15689 6772 1 109.50000 418.400000
1081 15689 10470 1 109.50000 418.400000
6772 15689 10470 1 109.50000 418.400000
3287 15690 6885 1 109.50000 418.400000
3287 15690 9951 1 109.50000 418.400000
3287 15690 10178 1 109.50000 418.400000
6885 15690 9951 1 109.50000 418.400000
6885 15690 10178 1 109.50000 418.400000
9951 15690 10178 1 109.50000 418.400000
1754 15691 3370 1 109.50000 418.400000
1754 15691 4968 1 109.50000 418.400000
1754 15691 9407 1 109.50000 418.400000
3370 15691 4968 1 109.50000 418.400000
3370 15691 9407 1 109.50000 418.400000
4968 15691 9407 1 109.50000 418.400000
55 15692 8096 1 109.50000 418.400000
55 15692 10658 1 109.50000 418.400000
55 15692 10852 1 109.50000 418.400000
8096 15692 10658 1 109.50000 418.400000
8096 15692 10852 1 109.50000 418.400000
10658 15692 10852 1 109.50000 418.400000
7997 15693 8736 1 109.50000 418.400000
7997 15693 10066 1 109.50000 418.400000
7997 15693 10853 1 109.50000 418.400000
8736 15693 10066 1 109.50000 418.400000
8736 15693 10853 1 109.50000 418.400000
10066 15693 10853 1 109.50000 418.400000
9560 15694 9685 1 109.50000 418.400000
9560 15694 10854 1 109.50000 418.400000
9560 15694 10901 1 109.50000 418.400000
9685 15694 10854 1 109.50000 418.400000
9685 15694 10901 1 109.50000 418.400000
10854 15694 10901 1 109.50000 418.400000
4159 15695 5857 1 109.50000 418.400000
4159 15695 6855 1 109.50000 418.400000
4159 15695 10855 1 109.50000 418.400000
5857 15695 6855 1 109.50000 418.400000
5857 15695 10855 1 109.50000 418.400000
6855 15695 10855 1 109.50000 418.400000
4066 15696 4067 1 109.50000 418.400000
4066 15696 8150 1 109.50000 418.400000
4066 15696 8440 1 109.50000 418.400000
4067 15696 8150 1 109.50000 418.400000
4067 15696 8440 1 109.50000 418.400000
8150 15696 8440 1 109.50000 418.400000
4379 15697 8713 1 109.50000 418.400000
4379 15697 10856 1 109.50000 418.400000
4379 15697 10857 1 109.50000 418.400000
8713 15697 10856 1 109.50000 418.400000
8713 15697 10857 1 109.50000 418.400000
10856 15697 10857 1 109.50000 418.400000
665 15698 666 1 109.50000 418.400000
665 15698 5447 1 109.50000 418.400000
665 15698 10859 1 109.50000 418.400000
666 15698 5447 1 109.50000 418.400000
666 15698 10859 1 109.50000 418.400000
5447 15698 10859 1 109.50000 418.400000
10300 15699 10302 1 109.50000 418.400000
10300 15699 10860 1 109.50000 418.400000
10300 15699 10861 1 109.50000 418.400000
10302 15699 10860 1 109.50000 418.400000
10302 15699 10861 1 109.50000 418.400000
10860 15699 10861 1 109.50000 418.400000
319 15700 839 1 109.50000 418.400000
319 15700 7000 1 109.50000 418.400000
319 15700 10145 1 109.50000 418.400000
839 15700 7000 1 109.50000 418.400000
839 15700 10145 1 109.50000 418.400000
7000 15700 10145 1 109.50000 418.400000
6391 15701 7276 1 109.50000 418.400000
6391 15701 9687 1 109.50000 418.400000
6391 15701 10859 1 109.50000 418.400000
7276 15701 9687 1 109.50000 418.400000
7276 15701 10859 1 109.50000 418.400000
9687 15701 10859 1 109.50000 418.400000
2689 15702 7068 1 109.50000 418.400000
2689 15702 8826 1 109.50000 418.400000
2689 15702 10862 1 109.50000 418.400000
7068 15702 8826 1 109.50000 418.400000
7068 15702 10862 1 109.50000 418.400000
8826 15702 10862 1 109.50000 418.400000
2682 15703 2683 1 109.50000 418.400000
2682 15703 3534 1 109.50000 418.400000
2682 15703 4979 1 109.50000 418.400000
2683 15703 3534 1 109.50000 418.400000
2683 15703 4979 1 109.50000 418.400000
3534 15703 4979 1 109.50000 418.400000
1760 15704 8105 1 109.50000 418.400000
1760 15704 9004 1 109.50000 418.400000
1760 15704 11201 1 109.50000 418.400000
8105 15704 9004 1 109.50000 418.400000
8105 15704 11201 1 109.50000 418.400000
9004 15704 11201 1 109.50000 418.400000
554 15705 2181 1 109.50000 418.400000
554 15705 6780 1 109.50000 418.400000
554 15705 10863 1 109.50000 418.400000
2181 15705 6780 1 109.50000 418.400000
2181 15705 10863 1 109.50000 418.400000
6780 15705 10863 1 109.50000 418.400000
3 15706 2221 1 109.50000 418.400000
3 15706 2491 1 109.50000 418.400000
3 15706 5872 1 109.50000 418.400000
2221 15706 2491 1 109.50000 418.400000
2221 15706 5872 1 109.50000 418.400000
2491 15706 5872 1 109.50000 418.400000
1389 15707 2641 1 109.50000 418.400000
1389 15707 7408 1 109.50000 418.400000
1389 15707 7410 1 109.50000 418.400000
2641 15707 7408 1 109.50000 418.400000
2641 15707 7410 1 109.50000 418.400000
7408 15707 7410 1 109.50000 418.400000
8449 15708 8450 1 109.50000 418.400000
8449 15708 9655 1 109.50000 418.400000
8449 15708 9656 1 109.50000 418.400000
8450 15708 9655 1 109.50000 418.400000
8450 15708 9656 1 109.50000 418.400000
9655 15708 9656 1 109.50000 418.400000
6684 15709 8316 1 109.50000 418.400000
6684 15709 10209 1 109.50000 418.400000
6684 15709 10865 1 109.50000 418.400000
8316 15709 10209 1 109.50000 418.400000
8316 15709 10865 1 109.50000 418.400000
10209 15709 10865 1 109.50000 418.400000
5516 15710 6417 1 109.50000 418.400000
5516 15710 6418 1 109.50000 418.400000
5516 15710 6795 1 109.50000 418.400000
6417 15710 6418 1 109.50000 418.400000
6417 15710 6795 1 109.50000 418.400000
6418 15710 6795 1 109.50000 418.400000
6045 15711 6856 1 109.50000 418.400000
6045 15711 7588 1 109.50000 418.400000
6045 15711 8284 1 109.50000 418.400000
6856 15711 7588 1 109.50000 418.400000
6856 15711 8284 1 109.50000 418.400000
7588 15711 8284 1 109.50000 418.400000
9876 15712 9977 1 109.50000 418.400000
9876 15712 10349 1 109.50000 418.400000
9876 15712 10870 1 109.50000 418.400000
9977 15712 10349 1 109.50000 418.400000
9977 15712 10870 1 109.50000 418.400000
10349 15712 10870 1 109.50000 418.400000
8597 15713 8932 1 109.50000 418.400000
8597 15713 9397 1 109.50000 418.400000
8597 15713 9472 1 109.50000 418.400000
8932 15713 9397 1 109.50000 418.400000
8932 15713 9472 1 109.50000 418.400000
9397 15713 9472 1 109.50000 418.400000
7461 15714 7814 1 109.50000 418.400000
7461 15714 10212 1 109.50000 418.400000
7461 15714 10753 1 109.50000 418.400000
7814 15714 10212 1 109.50000 418.400000
7814 15714 10753 1 109.50000 418.400000
10212 15714 10753 1 109.50000 418.400000
2751 15715 6833 1 109.50000 418.400000
2751 15715 10381 1 109.50000 418.400000
2751 15715 10539 1 109.50000 418.400000
6833 15715 10381 1 109.50000 418.400000
6833 15715 10539 1 109.50000 418.400000
10381 15715 10539 1 109.50000 418.400000
2636 15716 4620 1 109.50000 418.400000
2636 15716 5686 1 109.50000 418.400000
2636 15716 10771 1 109.50000 418.400000
4620 15716 5686 1 109.50000 418.400000
4620 15716 10771 1 109.50000 418.400000
5686 15716 10771 1 109.50000 418.400000
2507 15717 4879 1 109.50000 418.400000
2507 15717 9747 1 109.50000 418.400000
2507 15717 10768 1 109.50000 418.400000
4879 15717 9747 1 109.50000 418.400000
4879 15717 10768 1 109.50000 418.400000
9747 15717 10768 1 109.50000 418.400000
7644 15718 7645 1 109.50000 418.400000
7644 15718 10534 1 109.50000 418.400000
7644 15718 10871 1 109.50000 418.400000
7645 15718 10534 1 109.50000 418.400000
7645 15718 10871 1 109.50000 418.400000
10534 15718 10871 1 109.50000 418.400000
10437 15719 10873 1 109.50000 418.400000
10437 15719 10874 1 109.50000 418.400000
10437 15719 11231 1 109.50000 418.400000
10873 15719 10874 1 109.50000 418.400000
10873 15719 11231 1 109.50000 418.400000
10874 15719 11231 1 109.50000 418.400000
8723 15720 9467 1 109.50000 418.400000
8723 15720 10774 1 109.50000 418.400000
8723 15720 10875 1 109.50000 418.400000
9467 15720 10774 1 109.50000 418.400000
9467 15720 10875 1 109.50000 418.400000
10774 15720 10875 1 109.50000 418.400000
5409 15721 6266 1 109.50000 418.400000
5409 15721 10241 1 109.50000 418.400000
5409 15721 10876 1 109.50000 418.400000
6266 15721 10241 1 109.50000 418.400000
6266 15721 10876 1 109.50000 418.400000
10241 15721 10876 1 109.50000 418.400000
3211 15722 10459 1 109.50000 418.400000
3211 15722 10698 1 109.50000 418.400000
3211 15722 10749 1 109.50000 418.400000
10459 15722 10698 1 109.50000 418.400000
10459 15722 10749 1 109.50000 418.400000
10698 15722 10749 1 109.50000 418.400000
3099 15723 7458 1 109.50000 418.400000
3099 15723 8901 1 109.50000 418.400000
3099 15723 9649 1 109.50000 418.400000
7458 15723 8901 1 109.50000 418.400000
7458 15723 9649 1 109.50000 418.400000
8901 15723 9649 1 109.50000 418.400000
6632 15724 8328 1 109.50000 418.400000
6632 15724 8761 1 109.50000 418.400000
6632 15724 10828 1 109.50000 418.400000
8328 15724 8761 1 109.50000 418.400000
8328 15724 10828 1 109.50000 418.400000
8761 15724 10828 1 109.50000 418.400000
688 15725 6412 1 109.50000 418.400000
688 15725 6413 1 109.50000 418.400000
688 15725 6414 1 109.50000 418.400000
6412 15725 6413 1 109.50000 418.400000
6412 15725 6414 1 109.50000 418.400000
6413 15725 6414 1 109.50000 418.400000
112 15726 2871 1 109.50000 418.400000
112 15726 10878 1 109.50000 418.400000
112 15726 10879 1 109.50000 418.400000
2871 15726 10878 1 109.50000 418.400000
2871 15726 10879 1 109.50000 418.400000
10878 15726 10879 1 109.50000 418.400000
3158 15727 7183 1 109.50000 418.400000
3158 15727 10184 1 109.50000 418.400000
3158 15727 10880 1 109.50000 418.400000
7183 15727 10184 1 109.50000 418.400000
7183 15727 10880 1 109.50000 418.400000
10184 15727 10880 1 109.50000 418.400000
1498 15728 4158 1 109.50000 418.400000
1498 15728 10060 1 109.50000 418.400000
1498 15728 10881 1 109.50000 418.400000
4158 15728 10060 1 109.50000 418.400000
4158 15728 10881 1 109.50000 418.400000
10060 15728 10881 1 109.50000 418.400000
6411 15729 8063 1 109.50000 418.400000
6411 15729 8344 1 109.50000 418.400000
6411 15729 8830 1 109.50000 418.400000
8063 15729 8344 1 109.50000 418.400000
8063 15729 8830 1 109.50000 418.400000
8344 15729 8830 1 109.50000 418.400000
536 15730 3497 1 109.50000 418.400000
536 15730 7195 1 109.50000 418.400000
536 15730 8572 1 109.50000 418.400000
3497 15730 7195 1 109.50000 418.400000
3497 15730 8572 1 109.50000 418.400000
7195 15730 8572 1 109.50000 418.400000
2196 15731 2308 1 109.50000 418.400000
2196 15731 4635 1 109.50000 418.400000
2196 15731 10882 1 109.50000 418.400000
2308 15731 4635 1 109.50000 418.400000
2308 15731 10882 1 109.50000 418.400000
4635 15731 10882 1 109.50000 418.400000
8679 15732 8680 1 109.50000 418.400000
8679 15732 10883 1 109.50000 418.400000
8679 15732 10885 1 109.50000 418.400000
8680 15732 10883 1 109.50000 418.400000
8680 15732 10885 1 109.50000 418.400000
10883 15732 10885 1 109.50000 418.400000
240 15733 6907 1 109.50000 418.400000
240 15733 10718 1 109.50000 418.400000
240 15733 10886 1 109.50000 418.400000
6907 15733 10718 1 109.50000 418.400000
6907 15733 10886 1 109.50000 418.400000
10718 15733 10886 1 109.50000 418.400000
4333 15734 6286 1 109.50000 418.400000
4333 15734 7937 1 109.50000 418.400000
4333 15734 10575 1 109.50000 418.400000
6286 15734 7937 1 109.50000 418.400000
6286 15734 10575 1 109.50000 418.400000
7937 15734 10575 1 109.50000 418.400000
1674 15735 6466 1 109.50000 418.400000
1674 15735 8379 1 109.50000 418.400000
1674 15735 10390 1 109.50000 418.400000
6466 15735 8379 1 109.50000 418.400000
6466 15735 10390 1 109.50000 418.400000
8379 15735 10390 1 109.50000 418.400000
2407 15736 6119 1 109.50000 418.400000
2407 15736 9161 1 109.50000 418.400000
2407 15736 10464 1 109.50000 418.400000
6119 15736 9161 1 109.50000 418.400000
6119 15736 10464 1 109.50000 418.400000
9161 15736 10464 1 109.50000 418.400000
681 15737 1046 1 109.50000 418.400000
681 15737 7032 1 109.50000 418.400000
681 15737 9532 1 109.50000 418.400000
1046 15737 7032 1 109.50000 418.400000
1046 15737 9532 1 109.50000 418.400000
7032 15737 9532 1 109.50000 418.400000
2152 15738 5190 1 109.50000 418.400000
2152 15738 8272 1 109.50000 418.400000
2152 15738 10882 1 109.50000 418.400000
5190 15738 8272 1 109.50000 418.400000
5190 15738 10882 1 109.50000 418.400000
8272 15738 10882 1 109.50000 418.400000
8032 15739 9905 1 109.50000 418.400000
8032 15739 10644 1 109.50000 418.400000
8032 15739 10888 1 109.50000 418.400000
9905 15739 10644 1 109.50000 418.400000
9905 15739 10888 1 109.50000 418.400000
10644 15739 10888 1 109.50000 418.400000
970 15740 7607 1 109.50000 418.400000
970 15740 10240 1 109.50000 418.400000
970 15740 10889 1 109.50000 418.400000
7607 15740 10240 1 109.50000 418.400000
7607 15740 10889 1 109.50000 418.400000
10240 15740 10889 1 109.50000 418.400000
8887 15741 9233 1 109.50000 418.400000
8887 15741 10089 1 109.50000 418.400000
8887 15741 10890 1 109.50000 418.400000
9233 15741 10089 1 109.50000 418.400000
9233 15741 10890 1 109.50000 418.400000
10089 15741 10890 1 109.50000 418.400000
4694 15742 5411 1 109.50000 418.400000
4694 15742 7096 1 109.50000 418.400000
4694 15742 9232 1 109.50000 418.400000
5411 15742 7096 1 109.50000 418.400000
5411 15742 9232 1 109.50000 418.400000
7096 15742 9232 1 109.50000 418.400000
9719 15743 10892 1 109.50000 418.400000
9719 15743 10893 1 109.50000 418.400000
9719 15743 10894 1 109.50000 418.400000
10892 15743 10893 1 109.50000 418.400000
10892 15743 10894 1 109.50000 418.400000
10893 15743 10894 1 109.50000 418.400000
5738 15744 7691 1 109.50000 418.400000
5738 15744 10772 1 109.50000 418.400000
5738 15744 10895 1 109.50000 418.400000
7691 15744 10772 1 109.50000 418.400000
7691 15744 10895 1 109.50000 418.400000
10772 15744 10895 1 109.50000 418.400000
6296 15745 7705 1 109.50000 418.400000
6296 15745 7886 1 109.50000 418.400000
6296 15745 10321 1 109.50000 418.400000
7705 15745 7886 1 109.50000 418.400000
7705 15745 10321 1 109.50000 418.400000
7886 15745 10321 1 109.50000 418.400000
3462 15746 9082 1 109.50000 418.400000
3462 15746 9083 1 109.50000 418.400000
3462 15746 9911 1 109.50000 418.400000
9082 15746 9083 1 109.50000 418.400000
9082 15746 9911 1 109.50000 418.400000
9083 15746 9911 1 109.50000 418.400000
1137 15747 2092 1 109.50000 418.400000
1137 15747 9448 1 109.50000 418.400000
1137 15747 10896 1 109.50000 418.400000
2092 15747 9448 1 109.50000 418.400000
2092 15747 10896 1 109.50000 418.400000
9448 15747 10896 1 109.50000 418.400000
810 15748 811 1 109.50000 418.400000
810 15748 812 1 109.50000 418.400000
810 15748 813 1 109.50000 418.400000
811 15748 812 1 109.50000 418.400000
811 15748 813 1 109.50000 418.400000
812 15748 813 1 109.50000 418.400000
2927 15749 3343 1 109.50000 418.400000
2927 15749 4403 1 109.50000 418.400000
2927 15749 10416 1 109.50000 418.400000
3343 15749 4403 1 109.50000 418.400000
3343 15749 10416 1 109.50000 418.400000
4403 15749 10416 1 109.50000 418.400000
43 15750 2074 1 109.50000 418.400000
43 15750 8661 1 109.50000 418.400000
43 15750 9958 1 109.50000 418.400000
2074 15750 8661 1 109.50000 418.400000
2074 15750 9958 1 109.50000 418.400000
8661 15750 9958 1 109.50000 418.400000
1630 15751 5698 1 109.50000 418.400000
1630 15751 9236 1 109.50000 418.400000
1630 15751 10897 1 109.50000 418.400000
5698 15751 9236 1 109.50000 418.400000
5698 15751 10897 1 109.50000 418.400000
9236 15751 10897 1 109.50000 418.400000
4826 15752 9994 1 109.50000 418.400000
4826 15752 9995 1 109.50000 418.400000
4826 15752 10868 1 109.50000 418.400000
9994 15752 9995 1 109.50000 418.400000
9994 15752 10868 1 109.50000 418.400000
9995 15752 10868 1 109.50000 418.400000
6581 15753 10870 1 109.50000 418.400000
6581 15753 10898 1 109.50000 418.400000
6581 15753 10899 1 109.50000 418.400000
10870 15753 10898 1 109.50000 418.400000
10870 15753 10899 1 109.50000 418.400000
10898 15753 10899 1 109.50000 418.400000
1031 15754 8769 1 109.50000 418.400000
1031 15754 10865 1 109.50000 418.400000
1031 15754 10900 1 109.50000 418.400000
8769 15754 10865 1 109.50000 418.400000
8769 15754 10900 1 109.50000 418.400000
10865 15754 10900 1 109.50000 418.400000
8012 15755 9286 1 109.50000 418.400000
8012 15755 9606 1 109.50000 418.400000
8012 15755 9724 1 109.50000 418.400000
9286 15755 9606 1 109.50000 418.400000
9286 15755 9724 1 109.50000 418.400000
9606 15755 9724 1 109.50000 418.400000
1738 15756 1740 1 109.50000 418.400000
1738 15756 7174 1 109.50000 418.400000
1738 15756 10854 1 109.50000 418.400000
1740 15756 7174 1 109.50000 418.400000
1740 15756 10854 1 109.50000 418.400000
7174 15756 10854 1 109.50000 418.400000
1340 15757 4200 1 109.50000 418.400000
1340 15757 8003 1 109.50000 418.400000
1340 15757 8345 1 109.50000 418.400000
4200 15757 8003 1 109.50000 418.400000
4200 15757 8345 1 109.50000 418.400000
8003 15757 8345 1 109.50000 418.400000
7544 15758 9126 1 109.50000 418.400000
7544 15758 9296 1 109.50000 418.400000
7544 15758 10673 1 109.50000 418.400000
9126 15758 9296 1 109.50000 418.400000
9126 15758 10673 1 109.50000 418.400000
9296 15758 10673 1 109.50000 418.400000
3521 15759 5349 1 109.50000 418.400000
3521 15759 7816 1 109.50000 418.400000
3521 15759 8221 1 109.50000 418.400000
5349 15759 7816 1 109.50000 418.400000
5349 15759 8221 1 109.50000 418.400000
7816 15759 8221 1 109.50000 418.400000
8120 15760 8780 1 109.50000 418.400000
8120 15760 10855 1 109.50000 418.400000
8120 15760 10903 1 109.50000 418.400000
8780 15760 10855 1 109.50000 418.400000
8780 15760 10903 1 109.50000 418.400000
10855 15760 10903 1 109.50000 418.400000
942 15761 1593 1 109.50000 418.400000
942 15761 10403 1 109.50000 418.400000
942 15761 10779 1 109.50000 418.400000
1593 15761 10403 1 109.50000 418.400000
1593 15761 10779 1 109.50000 418.400000
10403 15761 10779 1 109.50000 418.400000
859 15762 6760 1 109.50000 418.400000
859 15762 10904 1 109.50000 418.400000
859 15762 10905 1 109.50000 418.400000
6760 15762 10904 1 109.50000 418.400000
6760 15762 10905 1 109.50000 418.400000
10904 15762 10905 1 109.50000 418.400000
494 15763 3029 1 109.50000 418.400000
494 15763 9585 1 109.50000 418.400000
494 15763 10906 1 109.50000 418.400000
3029 15763 9585 1 109.50000 418.400000
3029 15763 10906 1 109.50000 418.400000
9585 15763 10906 1 109.50000 418.400000
2110 15764 5221 1 109.50000 418.400000
2110 15764 10907 1 109.50000 418.400000
2110 15764 11185 1 109.50000 418.400000
5221 15764 10907 1 109.50000 418.400000
5221 15764 11185 1 109.50000 418.400000
10907 15764 11185 1 109.50000 418.400000
6158 15765 8858 1 109.50000 418.400000
6158 15765 9775 1 109.50000 418.400000
6158 15765 10908 1 109.50000 418.400000
8858 15765 9775 1 109.50000 418.400000
8858 15765 10908 1 109.50000 418.400000
9775 15765 10908 1 109.50000 418.400000
5473 15766 9104 1 109.50000 418.400000
5473 15766 9471 1 109.50000 418.400000
5473 15766 11241 1 109.50000 418.400000
9104 15766 9471 1 109.50000 418.400000
9104 15766 11241 1 109.50000 418.400000
9471 15766 11241 1 109.50000 418.400000
2969 15767 8399 1 109.50000 418.400000
2969 15767 10909 1 109.50000 418.400000
2969 15767 10910 1 109.50000 418.400000
8399 15767 10909 1 109.50000 418.400000
8399 15767 10910 1 109.50000 418.400000
10909 15767 10910 1 109.50000 418.400000
6480 15768 8869 1 109.50000 418.400000
6480 15768 10867 1 109.50000 418.400000
6480 15768 10912 1 109.50000 418.400000
8869 15768 10867 1 109.50000 418.400000
8869 15768 10912 1 109.50000 418.400000
10867 15768 10912 1 109.50000 418.400000
2790 15769 2799 1 109.50000 418.400000
2790 15769 4006 1 109.50000 418.400000
2790 15769 10617 1 109.50000 418.400000
2799 15769 4006 1 109.50000 418.400000
2799 15769 10617 1 109.50000 418.400000
4006 15769 10617 1 109.50000 418.400000
6330 15770 6891 1 109.50000 418.400000
6330 15770 9789 1 109.50000 418.400000
6330 15770 9819 1 109.50000 418.400000
6891 15770 9789 1 109.50000 418.400000
6891 15770 9819 1 109.50000 418.400000
9789 15770 9819 1 109.50000 418.400000
4697 15771 8967 1 109.50000 418.400000
4697 15771 10889 1 109.50000 418.400000
4697 15771 10914 1 109.50000 418.400000
8967 15771 10889 1 109.50000 418.400000
8967 15771 10914 1 109.50000 418.400000
10889 15771 10914 1 109.50000 418.400000
2103 15772 2411 1 109.50000 418.400000
2103 15772 8577 1 109.50000 418.400000
2103 15772 8706 1 109.50000 418.400000
2411 15772 8577 1 109.50000 418.400000
2411 15772 8706 1 109.50000 418.400000
8577 15772 8706 1 109.50000 418.400000
2102 15773 3651 1 109.50000 418.400000
2102 15773 5999 1 109.50000 418.400000
2102 15773 10884 1 109.50000 418.400000
3651 15773 5999 1 109.50000 418.400000
3651 15773 10884 1 109.50000 418.400000
5999 15773 10884 1 109.50000 418.400000
8911 15774 9425 1 109.50000 418.400000
8911 15774 10211 1 109.50000 418.400000
8911 15774 10915 1 109.50000 418.400000
9425 15774 10211 1 109.50000 418.400000
9425 15774 10915 1 109.50000 418.400000
10211 15774 10915 1 109.50000 418.400000
9582 15775 9593 1 109.50000 418.400000
9582 15775 10832 1 109.50000 418.400000
9582 15775 10916 1 109.50000 418.400000
9593 15775 10832 1 109.50000 418.400000
9593 15775 10916 1 109.50000 418.400000
10832 15775 10916 1 109.50000 418.400000
2373 15776 4155 1 109.50000 418.400000
2373 15776 10138 1 109.50000 418.400000
2373 15776 10917 1 109.50000 418.400000
4155 15776 10138 1 109.50000 418.400000
4155 15776 10917 1 109.50000 418.400000
10138 15776 10917 1 109.50000 418.400000
2769 15777 6783 1 109.50000 418.400000
2769 15777 9772 1 109.50000 418.400000
2769 15777 10714 1 109.50000 418.400000
6783 15777 9772 1 109.50000 418.400000
6783 15777 10714 1 109.50000 418.400000
9772 15777 10714 1 109.50000 418.400000
3149 15778 7071 1 109.50000 418.400000
3149 15778 8531 1 109.50000 418.400000
3149 15778 10282 1 109.50000 418.400000
7071 15778 8531 1 109.50000 418.400000
7071 15778 10282 1 109.50000 418.400000
8531 15778 10282 1 109.50000 418.400000
3060 15779 9600 1 109.50000 418.400000
3060 15779 10597 1 109.50000 418.400000
3060 15779 10918 1 109.50000 418.400000
9600 15779 10597 1 109.50000 418.400000
9600 15779 10918 1 109.50000 418.400000
10597 15779 10918 1 109.50000 418.400000
1876 15780 8050 1 109.50000 418.400000
1876 15780 9047 1 109.50000 418.400000
1876 15780 10581 1 109.50000 418.400000
8050 15780 9047 1 109.50000 418.400000
8050 15780 10581 1 109.50000 418.400000
9047 15780 10581 1 109.50000 418.400000
427 15781 7259 1 109.50000 418.400000
427 15781 7685 1 109.50000 418.400000
427 15781 10797 1 109.50000 418.400000
7259 15781 7685 1 109.50000 418.400000
7259 15781 10797 1 109.50000 418.400000
7685 15781 10797 1 109.50000 418.400000
385 15782 4541 1 109.50000 418.400000
385 15782 8253 1 109.50000 418.400000
385 15782 9618 1 109.50000 418.400000
4541 15782 8253 1 109.50000 418.400000
4541 15782 9618 1 109.50000 418.400000
8253 15782 9618 1 109.50000 418.400000
4529 15783 9957 1 109.50000 418.400000
4529 15783 10150 1 109.50000 418.400000
4529 15783 10151 1 109.50000 418.400000
9957 15783 10150 1 109.50000 418.400000
9957 15783 10151 1 109.50000 418.400000
10150 15783 10151 1 109.50000 418.400000
551 15784 2245 1 109.50000 418.400000
551 15784 4003 1 109.50000 418.400000
551 15784 6297 1 109.50000 418.400000
2245 15784 4003 1 109.50000 418.400000
2245 15784 6297 1 109.50000 418.400000
4003 15784 6297 1 109.50000 418.400000
5049 15785 9041 1 109.50000 418.400000
5049 15785 9042 1 109.50000 418.400000
5049 15785 10919 1 109.50000 418.400000
9041 15785 9042 1 109.50000 418.400000
9041 15785 10919 1 109.50000 418.400000
9042 15785 10919 1 109.50000 418.400000
91 15786 9216 1 109.50000 418.400000
91 15786 9362 1 109.50000 418.400000
91 15786 10903 1 109.50000 418.400000
9216 15786 9362 1 109.50000 418.400000
9216 15786 10903 1 109.50000 418.400000
9362 15786 10903 1 109.50000 418.400000
6200 15787 7505 1 109.50000 418.400000
6200 15787 10687 1 109.50000 418.400000
6200 15787 10876 1 109.50000 418.400000
7505 15787 10687 1 109.50000 418.400000
7505 15787 10876 1 109.50000 418.400000
10687 15787 10876 1 109.50000 418.400000
4825 15788 6168 1 109.50000 418.400000
4825 15788 9103 1 109.50000 418.400000
4825 15788 10532 1 109.50000 418.400000
6168 15788 9103 1 109.50000 418.400000
6168 15788 10532 1 109.50000 418.400000
9103 15788 10532 1 109.50000 418.400000
7407 15789 8716 1 109.50000 418.400000
7407 15789 10921 1 109.50000 418.400000
7407 15789 10922 1 109.50000 418.400000
8716 15789 10921 1 109.50000 418.400000
8716 15789 10922 1 109.50000 418.400000
10921 15789 10922 1 109.50000 418.400000
5252 15790 5253 1 109.50000 418.400000
5252 15790 6619 1 109.50000 418.400000
5252 15790 10001 1 109.50000 418.400000
5253 15790 6619 1 109.50000 418.400000
5253 15790 10001 1 109.50000 418.400000
6619 15790 10001 1 109.50000 418.400000
5786 15791 9740 1 109.50000 418.400000
5786 15791 10814 1 109.50000 418.400000
5786 15791 11274 1 109.50000 418.400000
9740 15791 10814 1 109.50000 418.400000
9740 15791 11274 1 109.50000 418.400000
10814 15791 11274 1 109.50000 418.400000
2523 15792 6872 1 109.50000 418.400000
2523 15792 8185 1 109.50000 418.400000
2523 15792 9259 1 109.50000 418.400000
6872 15792 8185 1 109.50000 418.400000
6872 15792 9259 1 109.50000 418.400000
8185 15792 9259 1 109.50000 418.400000
3509 15793 5943 1 109.50000 418.400000
3509 15793 5944 1 109.50000 418.400000
3509 15793 5945 1 109.50000 418.400000
5943 15793 5944 1 109.50000 418.400000
5943 15793 5945 1 109.50000 418.400000
5944 15793 5945 1 109.50000 418.400000
7975 15794 9989 1 109.50000 418.400000
7975 15794 10269 1 109.50000 418.400000
7975 15794 10924 1 109.50000 418.400000
9989 15794 10269 1 109.50000 418.400000
9989 15794 10924 1 109.50000 418.400000
10269 15794 10924 1 109.50000 418.400000
3889 15795 6295 1 109.50000 418.400000
3889 15795 7887 1 109.50000 418.400000
3889 15795 8411 1 109.50000 418.400000
6295 15795 7887 1 109.50000 418.400000
6295 15795 8411 1 109.50000 418.400000
7887 15795 8411 1 109.50000 418.400000
3570 15796 8709 1 109.50000 418.400000
3570 15796 9743 1 109.50000 418.400000
3570 15796 11326 1 109.50000 418.400000
8709 15796 9743 1 109.50000 418.400000
8709 15796 11326 1 109.50000 418.400000
9743 15796 11326 1 109.50000 418.400000
5237 15797 6122 1 109.50000 418.400000
5237 15797 6784 1 109.50000 418.400000
5237 15797 10629 1 109.50000 418.400000
6122 15797 6784 1 109.50000 418.400000
6122 15797 10629 1 109.50000 418.400000
6784 15797 10629 1 109.50000 418.400000
4279 15798 6109 1 109.50000 418.400000
4279 15798 10376 1 109.50000 418.400000
4279 15798 10925 1 109.50000 418.400000
6109 15798 10376 1 109.50000 418.400000
6109 15798 10925 1 109.50000 418.400000
10376 15798 10925 1 109.50000 418.400000
1436 15799 4389 1 109.50000 418.400000
1436 15799 8757 1 109.50000 418.400000
1436 15799 10712 1 109.50000 418.400000
4389 15799 8757 1 109.50000 418.400000
4389 15799 10712 1 109.50000 418.400000
8757 15799 10712 1 109.50000 418.400000
1870 15800 2546 1 109.50000 418.400000
1870 15800 9122 1 109.50000 418.400000
1870 15800 9518 1 109.50000 418.400000
2546 15800 9122 1 109.50000 418.400000
2546 15800 9518 1 109.50000 418.400000
9122 15800 9518 1 109.50000 418.400000
8298 15801 10570 1 109.50000 418.400000
8298 15801 10926 1 109.50000 418.400000
8298 15801 11227 1 109.50000 418.400000
10570 15801 10926 1 109.50000 418.400000
10570 15801 11227 1 109.50000 418.400000
10926 15801 11227 1 109.50000 418.400000
1844 15802 10453 1 109.50000 418.400000
1844 15802 10908 1 109.50000 418.400000
1844 15802 10927 1 109.50000 418.400000
10453 15802 10908 1 109.50000 418.400000
10453 15802 10927 1 109.50000 418.400000
10908 15802 10927 1 109.50000 418.400000
5550 15803 7615 1 109.50000 418.400000
5550 15803 10928 1 109.50000 418.400000
5550 15803 10929 1 109.50000 418.400000
7615 15803 10928 1 109.50000 418.400000
7615 15803 10929 1 109.50000 418.400000
10928 15803 10929 1 109.50000 418.400000
9300 15804 9349 1 109.50000 418.400000
9300 15804 10930 1 109.50000 418.400000
9300 15804 11017 1 109.50000 418.400000
9349 15804 10930 1 109.50000 418.400000
9349 15804 11017 1 109.50000 418.400000
10930 15804 11017 1 109.50000 418.400000
1462 15805 8608 1 109.50000 418.400000
1462 15805 9525 1 109.50000 418.400000
1462 15805 9947 1 109.50000 418.400000
8608 15805 9525 1 109.50000 418.400000
8608 15805 9947 1 109.50000 418.400000
9525 15805 9947 1 109.50000 418.400000
2156 15806 4857 1 109.50000 418.400000
2156 15806 9074 1 109.50000 418.400000
2156 15806 10426 1 109.50000 418.400000
4857 15806 9074 1 109.50000 418.400000
4857 15806 10426 1 109.50000 418.400000
9074 15806 10426 1 109.50000 418.400000
1828 15807 2231 1 109.50000 418.400000
1828 15807 5705 1 109.50000 418.400000
1828 15807 10042 1 109.50000 418.400000
2231 15807 5705 1 109.50000 418.400000
2231 15807 10042 1 109.50000 418.400000
5705 15807 10042 1 109.50000 418.400000
2028 15808 3313 1 109.50000 418.400000
2028 15808 7727 1 109.50000 418.400000
2028 15808 9359 1 109.50000 418.400000
3313 15808 7727 1 109.50000 418.400000
3313 15808 9359 1 109.50000 418.400000
7727 15808 9359 1 109.50000 418.400000
1452 15809 9647 1 109.50000 418.400000
1452 15809 10487 1 109.50000 418.400000
1452 15809 10657 1 109.50000 418.400000
9647 15809 10487 1 109.50000 418.400000
9647 15809 10657 1 109.50000 418.400000
10487 15809 10657 1 109.50000 418.400000
3043 15810 3046 1 109.50000 418.400000
3043 15810 8683 1 109.50000 418.400000
3043 15810 10025 1 109.50000 418.400000
3046 15810 8683 1 109.50000 418.400000
3046 15810 10025 1 109.50000 418.400000
8683 15810 10025 1 109.50000 418.400000
7435 15811 9528 1 109.50000 418.400000
7435 15811 10334 1 109.50000 418.400000
7435 15811 10931 1 109.50000 418.400000
9528 15811 10334 1 109.50000 418.400000
9528 15811 10931 1 109.50000 418.400000
10334 15811 10931 1 109.50000 418.400000
6047 15812 6552 1 109.50000 418.400000
6047 15812 6587 1 109.50000 418.400000
6047 15812 7963 1 109.50000 418.400000
6552 15812 6587 1 109.50000 418.400000
6552 15812 7963 1 109.50000 418.400000
6587 15812 7963 1 109.50000 418.400000
1362 15813 7116 1 109.50000 418.400000
1362 15813 9829 1 109.50000 418.400000
1362 15813 10732 1 109.50000 418.400000
7116 15813 9829 1 109.50000 418.400000
7116 15813 10732 1 109.50000 418.400000
9829 15813 10732 1 109.50000 418.400000
1149 15814 4240 1 109.50000 418.400000
1149 15814 7147 1 109.50000 418.400000
1149 15814 10834 1 109.50000 418.400000
4240 15814 7147 1 109.50000 418.400000
4240 15814 10834 1 109.50000 418.400000
7147 15814 10834 1 109.50000 418.400000
5381 15815 8630 1 109.50000 418.400000
5381 15815 8700 1 109.50000 418.400000
5381 15815 10932 1 109.50000 418.400000
8630 15815 8700 1 109.50000 418.400000
8630 15815 10932 1 109.50000 418.400000
8700 15815 10932 1 109.50000 418.400000
206 15816 4662 1 109.50000 418.400000
206 15816 10277 1 109.50000 418.400000
206 15816 10737 1 109.50000 418.400000
4662 15816 10277 1 109.50000 418.400000
4662 15816 10737 1 109.50000 418.400000
10277 15816 10737 1 109.50000 418.400000
3515 15817 3826 1 109.50000 418.400000
3515 15817 5072 1 109.50000 418.400000
3515 15817 6175 1 109.50000 418.400000
3826 15817 5072 1 109.50000 418.400000
3826 15817 6175 1 109.50000 418.400000
5072 15817 6175 1 109.50000 418.400000
361 15818 2397 1 109.50000 418.400000
361 15818 10504 1 109.50000 418.400000
361 15818 10933 1 109.50000 418.400000
2397 15818 10504 1 109.50000 418.400000
2397 15818 10933 1 109.50000 418.400000
10504 15818 10933 1 109.50000 418.400000
6108 15819 6197 1 109.50000 418.400000
6108 15819 10801 1 109.50000 418.400000
6108 15819 11195 1 109.50000 418.400000
6197 15819 10801 1 109.50000 418.400000
6197 15819 11195 1 109.50000 418.400000
10801 15819 11195 1 109.50000 418.400000
1294 15820 1443 1 109.50000 418.400000
1294 15820 3468 1 109.50000 418.400000
1294 15820 9661 1 109.50000 418.400000
1443 15820 3468 1 109.50000 418.400000
1443 15820 9661 1 109.50000 418.400000
3468 15820 9661 1 109.50000 418.400000
1904 15821 9358 1 109.50000 418.400000
1904 15821 9901 1 109.50000 418.400000
1904 15821 10934 1 109.50000 418.400000
9358 15821 9901 1 109.50000 418.400000
9358 15821 10934 1 109.50000 418.400000
9901 15821 10934 1 109.50000 418.400000
73 15822 3562 1 109.50000 418.400000
73 15822 3564 1 109.50000 418.400000
73 15822 3565 1 109.50000 418.400000
3562 15822 3564 1 109.50000 418.400000
3562 15822 3565 1 109.50000 418.400000
3564 15822 3565 1 109.50000 418.400000
1975 15823 1977 1 109.50000 418.400000
1975 15823 6247 1 109.50000 418.400000
1975 15823 10636 1 109.50000 418.400000
1977 15823 6247 1 109.50000 418.400000
1977 15823 10636 1 109.50000 418.400000
6247 15823 10636 1 109.50000 418.400000
538 15824 6125 1 109.50000 418.400000
538 15824 7819 1 109.50000 418.400000
538 15824 10443 1 109.50000 418.400000
6125 15824 7819 1 109.50000 418.400000
6125 15824 10443 1 109.50000 418.400000
7819 15824 10443 1 109.50000 418.400000
1176 15825 3705 1 109.50000 418.400000
1176 15825 7655 1 109.50000 418.400000
1176 15825 10493 1 109.50000 418.400000
3705 15825 7655 1 109.50000 418.400000
3705 15825 10493 1 109.50000 418.400000
7655 15825 10493 1 109.50000 418.400000
6317 15826 10681 1 109.50000 418.400000
6317 15826 10863 1 109.50000 418.400000
6317 15826 10935 1 109.50000 418.400000
10681 15826 10863 1 109.50000 418.400000
10681 15826 10935 1 109.50000 418.400000
10863 15826 10935 1 109.50000 418.400000
1357 15827 5585 1 109.50000 418.400000
1357 15827 6812 1 109.50000 418.400000
1357 15827 8417 1 109.50000 418.400000
5585 15827 6812 1 109.50000 418.400000
5585 15827 8417 1 109.50000 418.400000
6812 15827 8417 1 109.50000 418.400000
1575 15828 1576 1 109.50000 418.400000
1575 15828 8450 1 109.50000 418.400000
1575 15828 9851 1 109.50000 418.400000
1576 15828 8450 1 109.50000 418.400000
1576 15828 9851 1 109.50000 418.400000
8450 15828 9851 1 109.50000 418.400000
1485 15829 3481 1 109.50000 418.400000
1485 15829 6803 1 109.50000 418.400000
1485 15829 9706 1 109.50000 418.400000
3481 15829 6803 1 109.50000 418.400000
3481 15829 9706 1 109.50000 418.400000
6803 15829 9706 1 109.50000 418.400000
452 15830 6068 1 109.50000 418.400000
452 15830 8026 1 109.50000 418.400000
452 15830 10878 1 109.50000 418.400000
6068 15830 8026 1 109.50000 418.400000
6068 15830 10878 1 109.50000 418.400000
8026 15830 10878 1 109.50000 418.400000
320 15831 3192 1 109.50000 418.400000
320 15831 7764 1 109.50000 418.400000
320 15831 10337 1 109.50000 418.400000
3192 15831 7764 1 109.50000 418.400000
3192 15831 10337 1 109.50000 418.400000
7764 15831 10337 1 109.50000 418.400000
5505 15832 7125 1 109.50000 418.400000
5505 15832 7222 1 109.50000 418.400000
5505 15832 9985 1 109.50000 418.400000
7125 15832 7222 1 109.50000 418.400000
7125 15832 9985 1 109.50000 418.400000
7222 15832 9985 1 109.50000 418.400000
1070 15833 5255 1 109.50000 418.400000
1070 15833 9608 1 109.50000 418.400000
1070 15833 10875 1 109.50000 418.400000
5255 15833 9608 1 109.50000 418.400000
5255 15833 10875 1 109.50000 418.400000
9608 15833 10875 1 109.50000 418.400000
3388 15834 5659 1 109.50000 418.400000
3388 15834 9333 1 109.50000 418.400000
3388 15834 10045 1 109.50000 418.400000
5659 15834 9333 1 109.50000 418.400000
5659 15834 10045 1 109.50000 418.400000
9333 15834 10045 1 109.50000 418.400000
1632 15835 8767 1 109.50000 418.400000
1632 15835 10715 1 109.50000 418.400000
1632 15835 10936 1 109.50000 418.400000
8767 15835 10715 1 109.50000 418.400000
8767 15835 10936 1 109.50000 418.400000
10715 15835 10936 1 109.50000 418.400000
3801 15836 4804 1 109.50000 418.400000
3801 15836 7027 1 109.50000 418.400000
3801 15836 10683 1 109.50000 418.400000
4804 15836 7027 1 109.50000 418.400000
4804 15836 10683 1 109.50000 418.400000
7027 15836 10683 1 109.50000 418.400000
8611 15837 8614 1 109.50000 418.400000
8611 15837 8840 1 109.50000 418.400000
8611 15837 10937 1 109.50000 418.400000
8614 15837 8840 1 109.50000 418.400000
8614 15837 10937 1 109.50000 418.400000
8840 15837 10937 1 109.50000 418.400000
6142 15838 6337 1 109.50000 418.400000
6142 15838 7735 1 109.50000 418.400000
6142 15838 10938 1 109.50000 418.400000
6337 15838 7735 1 109.50000 418.400000
6337 15838 10938 1 109.50000 418.400000
7735 15838 10938 1 109.50000 418.400000
3318 15839 5479 1 109.50000 418.400000
3318 15839 6064 1 109.50000 418.400000
3318 15839 10320 1 109.50000 418.400000
5479 15839 6064 1 109.50000 418.400000
5479 15839 10320 1 109.50000 418.400000
6064 15839 10320 1 109.50000 418.400000
1178 15840 6597 1 109.50000 418.400000
1178 15840 7702 1 109.50000 418.400000
1178 15840 9832 1 109.50000 418.400000
6597 15840 7702 1 109.50000 418.400000
6597 15840 9832 1 109.50000 418.400000
7702 15840 9832 1 109.50000 418.400000
352 15841 1479 1 109.50000 418.400000
352 15841 7944 1 109.50000 418.400000
352 15841 10939 1 109.50000 418.400000
1479 15841 7944 1 109.50000 418.400000
1479 15841 10939 1 109.50000 418.400000
7944 15841 10939 1 109.50000 418.400000
3844 15842 6584 1 109.50000 418.400000
3844 15842 9265 1 109.50000 418.400000
3844 15842 10941 1 109.50000 418.400000
6584 15842 9265 1 109.50000 418.400000
6584 15842 10941 1 109.50000 418.400000
9265 15842 10941 1 109.50000 418.400000
2961 15843 7423 1 109.50000 418.400000
2961 15843 9013 1 109.50000 418.400000
2961 15843 9369 1 109.50000 418.400000
7423 15843 9013 1 109.50000 418.400000
7423 15843 9369 1 109.50000 418.400000
9013 15843 9369 1 109.50000 418.400000
5567 15844 7131 1 109.50000 418.400000
5567 15844 7132 1 109.50000 418.400000
5567 15844 10084 1 109.50000 418.400000
7131 15844 7132 1 109.50000 418.400000
7131 15844 10084 1 109.50000 418.400000
7132 15844 10084 1 109.50000 418.400000
7825 15845 10058 1 109.50000 418.400000
7825 15845 10217 1 109.50000 418.400000
7825 15845 10456 1 109.50000 418.400000
10058 15845 10217 1 109.50000 418.400000
10058 15845 10456 1 109.50000 418.400000
10217 15845 10456 1 109.50000 418.400000
2629 15846 5862 1 109.50000 418.400000
2629 15846 10943 1 109.50000 418.400000
2629 15846 10944 1 109.50000 418.400000
5862 15846 10943 1 109.50000 418.400000
5862 15846 10944 1 109.50000 418.400000
10943 15846 10944 1 109.50000 418.400000
3737 15847 6679 1 109.50000 418.400000
3737 15847 7679 1 109.50000 418.400000
3737 15847 9708 1 109.50000 418.400000
6679 15847 7679 1 109.50000 418.400000
6679 15847 9708 1 109.50000 418.400000
7679 15847 9708 1 109.50000 418.400000
976 15848 3014 1 109.50000 418.400000
976 15848 10811 1 109.50000 418.400000
976 15848 10945 1 109.50000 418.400000
3014 15848 10811 1 109.50000 418.400000
3014 15848 10945 1 109.50000 418.400000
10811 15848 10945 1 109.50000 418.400000
7228 15849 8653 1 109.50000 418.400000
7228 15849 9113 1 109.50000 418.400000
7228 15849 10946 1 109.50000 418.400000
8653 15849 9113 1 109.50000 418.400000
8653 15849 10946 1 109.50000 418.400000
9113 15849 10946 1 109.50000 418.400000
3716 15850 6459 1 109.50000 418.400000
3716 15850 9341 1 109.50000 418.400000
3716 15850 10947 1 109.50000 418.400000
6459 15850 9341 1 109.50000 418.400000
6459 15850 10947 1 109.50000 418.400000
9341 15850 10947 1 109.50000 418.400000
2822 15851 4848 1 109.50000 418.400000
2822 15851 4849 1 109.50000 418.400000
2822 15851 10948 1 109.50000 418.400000
4848 15851 4849 1 109.50000 418.400000
4848 15851 10948 1 109.50000 418.400000
4849 15851 10948 1 109.50000 418.400000
107 15852 2062 1 109.50000 418.400000
107 15852 2768 1 109.50000 418.400000
107 15852 10527 1 109.50000 418.400000
2062 15852 2768 1 109.50000 418.400000
2062 15852 10527 1 109.50000 418.400000
2768 15852 10527 1 109.50000 418.400000
1017 15853 8550 1 109.50000 418.400000
1017 15853 10475 1 109.50000 418.400000
1017 15853 10857 1 109.50000 418.400000
8550 15853 10475 1 109.50000 418.400000
8550 15853 10857 1 109.50000 418.400000
10475 15853 10857 1 109.50000 418.400000
10219 15854 10860 1 109.50000 418.400000
10219 15854 10951 1 109.50000 418.400000
10219 15854 10952 1 109.50000 418.400000
10860 15854 10951 1 109.50000 418.400000
10860 15854 10952 1 109.50000 418.400000
10951 15854 10952 1 109.50000 418.400000
9066 15855 9976 1 109.50000 418.400000
9066 15855 10348 1 109.50000 418.400000
9066 15855 10953 1 109.50000 418.400000
9976 15855 10348 1 109.50000 418.400000
9976 15855 10953 1 109.50000 418.400000
10348 15855 10953 1 109.50000 418.400000
836 15856 4727 1 109.50000 418.400000
836 15856 10013 1 109.50000 418.400000
836 15856 10900 1 109.50000 418.400000
4727 15856 10013 1 109.50000 418.400000
4727 15856 10900 1 109.50000 418.400000
10013 15856 10900 1 109.50000 418.400000
4139 15857 4361 1 109.50000 418.400000
4139 15857 5260 1 109.50000 418.400000
4139 15857 9654 1 109.50000 418.400000
4361 15857 5260 1 109.50000 418.400000
4361 15857 9654 1 109.50000 418.400000
5260 15857 9654 1 109.50000 418.400000
1826 15858 1989 1 109.50000 418.400000
1826 15858 8164 1 109.50000 418.400000
1826 15858 10954 1 109.50000 418.400000
1989 15858 8164 1 109.50000 418.400000
1989 15858 10954 1 109.50000 418.400000
8164 15858 10954 1 109.50000 418.400000
5545 15859 5547 1 109.50000 418.400000
5545 15859 7949 1 109.50000 418.400000
5545 15859 10955 1 109.50000 418.400000
5547 15859 7949 1 109.50000 418.400000
5547 15859 10955 1 109.50000 418.400000
7949 15859 10955 1 109.50000 418.400000
3075 15860 7994 1 109.50000 418.400000
3075 15860 9302 1 109.50000 418.400000
3075 15860 10640 1 109.50000 418.400000
7994 15860 9302 1 109.50000 418.400000
7994 15860 10640 1 109.50000 418.400000
9302 15860 10640 1 109.50000 418.400000
1057 15861 5507 1 109.50000 418.400000
1057 15861 8477 1 109.50000 418.400000
1057 15861 10956 1 109.50000 418.400000
5507 15861 8477 1 109.50000 418.400000
5507 15861 10956 1 109.50000 418.400000
8477 15861 10956 1 109.50000 418.400000
2816 15862 3206 1 109.50000 418.400000
2816 15862 9998 1 109.50000 418.400000
2816 15862 10141 1 109.50000 418.400000
3206 15862 9998 1 109.50000 418.400000
3206 15862 10141 1 109.50000 418.400000
9998 15862 10141 1 109.50000 418.400000
3855 15863 6298 1 109.50000 418.400000
3855 15863 7566 1 109.50000 418.400000
3855 15863 10242 1 109.50000 418.400000
6298 15863 7566 1 109.50000 418.400000
6298 15863 10242 1 109.50000 418.400000
7566 15863 10242 1 109.50000 418.400000
2206 15864 4940 1 109.50000 418.400000
2206 15864 10074 1 109.50000 418.400000
2206 15864 10825 1 109.50000 418.400000
4940 15864 10074 1 109.50000 418.400000
4940 15864 10825 1 109.50000 418.400000
10074 15864 10825 1 109.50000 418.400000
1419 15865 6711 1 109.50000 418.400000
1419 15865 8831 1 109.50000 418.400000
1419 15865 9121 1 109.50000 418.400000
6711 15865 8831 1 109.50000 418.400000
6711 15865 9121 1 109.50000 418.400000
8831 15865 9121 1 109.50000 418.400000
3524 15866 5373 1 109.50000 418.400000
3524 15866 5772 1 109.50000 418.400000
3524 15866 9263 1 109.50000 418.400000
5373 15866 5772 1 109.50000 418.400000
5373 15866 9263 1 109.50000 418.400000
5772 15866 9263 1 109.50000 418.400000
4265 15867 6654 1 109.50000 418.400000
4265 15867 7372 1 109.50000 418.400000
4265 15867 7750 1 109.50000 418.400000
6654 15867 7372 1 109.50000 418.400000
6654 15867 7750 1 109.50000 418.400000
7372 15867 7750 1 109.50000 418.400000
3987 15868 7079 1 109.50000 418.400000
3987 15868 8625 1 109.50000 418.400000
3987 15868 10631 1 109.50000 418.400000
7079 15868 8625 1 109.50000 418.400000
7079 15868 10631 1 109.50000 418.400000
8625 15868 10631 1 109.50000 418.400000
6724 15869 6974 1 109.50000 418.400000
6724 15869 7164 1 109.50000 418.400000
6724 15869 10958 1 109.50000 418.400000
6974 15869 7164 1 109.50000 418.400000
6974 15869 10958 1 109.50000 418.400000
7164 15869 10958 1 109.50000 418.400000
6390 15870 7754 1 109.50000 418.400000
6390 15870 10565 1 109.50000 418.400000
6390 15870 10842 1 109.50000 418.400000
7754 15870 10565 1 109.50000 418.400000
7754 15870 10842 1 109.50000 418.400000
10565 15870 10842 1 109.50000 418.400000
8492 15871 10959 1 109.50000 418.400000
8492 15871 10960 1 109.50000 418.400000
8492 15871 10961 1 109.50000 418.400000
10959 15871 10960 1 109.50000 418.400000
10959 15871 10961 1 109.50000 418.400000
10960 15871 10961 1 109.50000 418.400000
3137 15872 3523 1 109.50000 418.400000
3137 15872 8977 1 109.50000 418.400000
3137 15872 10962 1 109.50000 418.400000
3523 15872 8977 1 109.50000 418.400000
3523 15872 10962 1 109.50000 418.400000
8977 15872 10962 1 109.50000 418.400000
826 15873 2854 1 109.50000 418.400000
826 15873 5089 1 109.50000 418.400000
826 15873 10223 1 109.50000 418.400000
2854 15873 5089 1 109.50000 418.400000
2854 15873 10223 1 109.50000 418.400000
5089 15873 10223 1 109.50000 418.400000
4818 15874 6211 1 109.50000 418.400000
4818 15874 8183 1 109.50000 418.400000
4818 15874 10963 1 109.50000 418.400000
6211 15874 8183 1 109.50000 418.400000
6211 15874 10963 1 109.50000 418.400000
8183 15874 10963 1 109.50000 418.400000
3683 15875 5574 1 109.50000 418.400000
3683 15875 6864 1 109.50000 418.400000
3683 15875 10966 1 109.50000 418.400000
5574 15875 6864 1 109.50000 418.400000
5574 15875 10966 1 109.50000 418.400000
6864 15875 10966 1 109.50000 418.400000
2519 15876 8821 1 109.50000 418.400000
2519 15876 9714 1 109.50000 418.400000
2519 15876 10113 1 109.50000 418.400000
8821 15876 9714 1 109.50000 418.400000
8821 15876 10113 1 109.50000 418.400000
9714 15876 10113 1 109.50000 418.400000
7033 15877 9109 1 109.50000 418.400000
7033 15877 10729 1 109.50000 418.400000
7033 15877 10967 1 109.50000 418.400000
9109 15877 10729 1 109.50000 418.400000
9109 15877 10967 1 109.50000 418.400000
10729 15877 10967 1 109.50000 418.400000
795 15878 5177 1 109.50000 418.400000
795 15878 10806 1 109.50000 418.400000
795 15878 10968 1 109.50000 418.400000
5177 15878 10806 1 109.50000 418.400000
5177 15878 10968 1 109.50000 418.400000
10806 15878 10968 1 109.50000 418.400000
8740 15879 10744 1 109.50000 418.400000
8740 15879 10824 1 109.50000 418.400000
8740 15879 10969 1 109.50000 418.400000
10744 15879 10824 1 109.50000 418.400000
10744 15879 10969 1 109.50000 418.400000
10824 15879 10969 1 109.50000 418.400000
5353 15880 8112 1 109.50000 418.400000
5353 15880 9774 1 109.50000 418.400000
5353 15880 10970 1 109.50000 418.400000
8112 15880 9774 1 109.50000 418.400000
8112 15880 10970 1 109.50000 418.400000
9774 15880 10970 1 109.50000 418.400000
7758 15881 10365 1 109.50000 418.400000
7758 15881 10388 1 109.50000 418.400000
7758 15881 10971 1 109.50000 418.400000
10365 15881 10388 1 109.50000 418.400000
10365 15881 10971 1 109.50000 418.400000
10388 15881 10971 1 109.50000 418.400000
8233 15882 9723 1 109.50000 418.400000
8233 15882 10130 1 109.50000 418.400000
8233 15882 10972 1 109.50000 418.400000
9723 15882 10130 1 109.50000 418.400000
9723 15882 10972 1 109.50000 418.400000
10130 15882 10972 1 109.50000 418.400000
4243 15883 4965 1 109.50000 418.400000
4243 15883 6556 1 109.50000 418.400000
4243 15883 8993 1 109.50000 418.400000
4965 15883 6556 1 109.50000 418.400000
4965 15883 8993 1 109.50000 418.400000
6556 15883 8993 1 109.50000 418.400000
1104 15884 6947 1 109.50000 418.400000
1104 15884 8109 1 109.50000 418.400000
1104 15884 10128 1 109.50000 418.400000
6947 15884 8109 1 109.50000 418.400000
6947 15884 10128 1 109.50000 418.400000
8109 15884 10128 1 109.50000 418.400000
1989 15885 1990 1 109.50000 418.400000
1989 15885 7199 1 109.50000 418.400000
1989 15885 10973 1 109.50000 418.400000
1990 15885 7199 1 109.50000 418.400000
1990 15885 10973 1 109.50000 418.400000
7199 15885 10973 1 109.50000 418.400000
66 15886 5220 1 109.50000 418.400000
66 15886 8262 1 109.50000 418.400000
66 15886 11181 1 109.50000 418.400000
5220 15886 8262 1 109.50000 418.400000
5220 15886 11181 1 109.50000 418.400000
8262 15886 11181 1 109.50000 418.400000
1306 15887 2398 1 109.50000 418.400000
1306 15887 2401 1 109.50000 418.400000
1306 15887 4936 1 109.50000 418.400000
2398 15887 2401 1 109.50000 418.400000
2398 15887 4936 1 109.50000 418.400000
2401 15887 4936 1 109.50000 418.400000
5454 15888 6877 1 109.50000 418.400000
5454 15888 10020 1 109.50000 418.400000
5454 15888 10975 1 109.50000 418.400000
6877 15888 10020 1 109.50000 418.400000
6877 15888 10975 1 109.50000 418.400000
10020 15888 10975 1 109.50000 418.400000
1572 15889 2632 1 109.50000 418.400000
1572 15889 4967 1 109.50000 418.400000
1572 15889 9026 1 109.50000 418.400000
2632 15889 4967 1 109.50000 418.400000
2632 15889 9026 1 109.50000 418.400000
4967 15889 9026 1 109.50000 418.400000
7881 15890 8818 1 109.50000 418.400000
7881 15890 10205 1 109.50000 418.400000
7881 15890 10763 1 109.50000 418.400000
8818 15890 10205 1 109.50000 418.400000
8818 15890 10763 1 109.50000 418.400000
10205 15890 10763 1 109.50000 418.400000
5394 15891 10592 1 109.50000 418.400000
5394 15891 10976 1 109.50000 418.400000
5394 15891 11215 1 109.50000 418.400000
10592 15891 10976 1 109.50000 418.400000
10592 15891 11215 1 109.50000 418.400000
10976 15891 11215 1 109.50000 418.400000
3224 15892 4080 1 109.50000 418.400000
3224 15892 4495 1 109.50000 418.400000
3224 15892 10736 1 109.50000 418.400000
4080 15892 4495 1 109.50000 418.400000
4080 15892 10736 1 109.50000 418.400000
4495 15892 10736 1 109.50000 418.400000
3467 15893 5385 1 109.50000 418.400000
3467 15893 9023 1 109.50000 418.400000
3467 15893 10769 1 109.50000 418.400000
5385 15893 9023 1 109.50000 418.400000
5385 15893 10769 1 109.50000 418.400000
9023 15893 10769 1 109.50000 418.400000
4613 15894 10919 1 109.50000 418.400000
4613 15894 10977 1 109.50000 418.400000
4613 15894 10978 1 109.50000 418.400000
10919 15894 10977 1 109.50000 418.400000
10919 15894 10978 1 109.50000 418.400000
10977 15894 10978 1 109.50000 418.400000
264 15895 1732 1 109.50000 418.400000
264 15895 10494 1 109.50000 418.400000
264 15895 10979 1 109.50000 418.400000
1732 15895 10494 1 109.50000 418.400000
1732 15895 10979 1 109.50000 418.400000
10494 15895 10979 1 109.50000 418.400000
7021 15896 7345 1 109.50000 418.400000
7021 15896 10964 1 109.50000 418.400000
7021 15896 10981 1 109.50000 418.400000
7345 15896 10964 1 109.50000 418.400000
7345 15896 10981 1 109.50000 418.400000
10964 15896 10981 1 109.50000 418.400000
4856 15897 4889 1 109.50000 418.400000
4856 15897 10367 1 109.50000 418.400000
4856 15897 10982 1 109.50000 418.400000
4889 15897 10367 1 109.50000 418.400000
4889 15897 10982 1 109.50000 418.400000
10367 15897 10982 1 109.50000 418.400000
1221 15898 2349 1 109.50000 418.400000
1221 15898 2602 1 109.50000 418.400000
1221 15898 10694 1 109.50000 418.400000
2349 15898 2602 1 109.50000 418.400000
2349 15898 10694 1 109.50000 418.400000
2602 15898 10694 1 109.50000 418.400000
4605 15899 8535 1 109.50000 418.400000
4605 15899 9573 1 109.50000 418.400000
4605 15899 9855 1 109.50000 418.400000
8535 15899 9573 1 109.50000 418.400000
8535 15899 9855 1 109.50000 418.400000
9573 15899 9855 1 109.50000 418.400000
1125 15900 4127 1 109.50000 418.400000
1125 15900 8807 1 109.50000 418.400000
1125 15900 10676 1 109.50000 418.400000
4127 15900 8807 1 109.50000 418.400000
4127 15900 10676 1 109.50000 418.400000
8807 15900 10676 1 109.50000 418.400000
7390 15901 10983 1 109.50000 418.400000
7390 15901 10984 1 109.50000 418.400000
7390 15901 10985 1 109.50000 418.400000
10983 15901 10984 1 109.50000 418.400000
10983 15901 10985 1 109.50000 418.400000
10984 15901 10985 1 109.50000 418.400000
3428 15902 8103 1 109.50000 418.400000
3428 15902 9157 1 109.50000 418.400000
3428 15902 10986 1 109.50000 418.400000
8103 15902 9157 1 109.50000 418.400000
8103 15902 10986 1 109.50000 418.400000
9157 15902 10986 1 109.50000 418.400000
242 15903 3690 1 109.50000 418.400000
242 15903 4646 1 109.50000 418.400000
242 15903 7486 1 109.50000 418.400000
3690 15903 4646 1 109.50000 418.400000
3690 15903 7486 1 109.50000 418.400000
4646 15903 7486 1 109.50000 418.400000
3546 15904 3888 1 109.50000 418.400000
3546 15904 6828 1 109.50000 418.400000
3546 15904 9203 1 109.50000 418.400000
3888 15904 6828 1 109.50000 418.400000
3888 15904 9203 1 109.50000 418.400000
6828 15904 9203 1 109.50000 418.400000
1528 15905 7517 1 109.50000 418.400000
1528 15905 8509 1 109.50000 418.400000
1528 15905 10874 1 109.50000 418.400000
7517 15905 8509 1 109.50000 418.400000
7517 15905 10874 1 109.50000 418.400000
8509 15905 10874 1 109.50000 418.400000
6531 15906 10395 1 109.50000 418.400000
6531 15906 10780 1 109.50000 418.400000
6531 15906 10987 1 109.50000 418.400000
10395 15906 10780 1 109.50000 418.400000
10395 15906 10987 1 109.50000 418.400000
10780 15906 10987 1 109.50000 418.400000
2639 15907 9480 1 109.50000 418.400000
2639 15907 10956 1 109.50000 418.400000
2639 15907 10989 1 109.50000 418.400000
9480 15907 10956 1 109.50000 418.400000
9480 15907 10989 1 109.50000 418.400000
10956 15907 10989 1 109.50000 418.400000
4504 15908 6012 1 109.50000 418.400000
4504 15908 8560 1 109.50000 418.400000
4504 15908 9704 1 109.50000 418.400000
6012 15908 8560 1 109.50000 418.400000
6012 15908 9704 1 109.50000 418.400000
8560 15908 9704 1 109.50000 418.400000
5816 15909 6239 1 109.50000 418.400000
5816 15909 6378 1 109.50000 418.400000
5816 15909 8142 1 109.50000 418.400000
6239 15909 6378 1 109.50000 418.400000
6239 15909 8142 1 109.50000 418.400000
6378 15909 8142 1 109.50000 418.400000
3242 15910 6114 1 109.50000 418.400000
3242 15910 7513 1 109.50000 418.400000
3242 15910 10669 1 109.50000 418.400000
6114 15910 7513 1 109.50000 418.400000
6114 15910 10669 1 109.50000 418.400000
7513 15910 10669 1 109.50000 418.400000
776 15911 7745 1 109.50000 418.400000
776 15911 9363 1 109.50000 418.400000
776 15911 10990 1 109.50000 418.400000
7745 15911 9363 1 109.50000 418.400000
7745 15911 10990 1 109.50000 418.400000
9363 15911 10990 1 109.50000 418.400000
6287 15912 8544 1 109.50000 418.400000
6287 15912 9431 1 109.50000 418.400000
6287 15912 10692 1 109.50000 418.400000
8544 15912 9431 1 109.50000 418.400000
8544 15912 10692 1 109.50000 418.400000
9431 15912 10692 1 109.50000 418.400000
516 15913 3339 1 109.50000 418.400000
516 15913 3596 1 109.50000 418.400000
516 15913 10982 1 109.50000 418.400000
3339 15913 3596 1 109.50000 418.400000
3339 15913 10982 1 109.50000 418.400000
3596 15913 10982 1 109.50000 418.400000
5627 15914 7257 1 109.50000 418.400000
5627 15914 10991 1 109.50000 418.400000
5627 15914 11163 1 109.50000 418.400000
7257 15914 10991 1 109.50000 418.400000
7257 15914 11163 1 109.50000 418.400000
10991 15914 11163 1 109.50000 418.400000
295 15915 7237 1 109.50000 418.400000
295 15915 9160 1 109.50000 418.400000
295 15915 10775 1 109.50000 418.400000
7237 15915 9160 1 109.50000 418.400000
7237 15915 10775 1 109.50000 418.400000
9160 15915 10775 1 109.50000 418.400000
4863 15916 10333 1 109.50000 418.400000
4863 15916 10444 1 109.50000 418.400000
4863 15916 10724 1 109.50000 418.400000
10333 15916 10444 1 109.50000 418.400000
10333 15916 10724 1 109.50000 418.400000
10444 15916 10724 1 109.50000 418.400000
3785 15917 6140 1 109.50000 418.400000
3785 15917 6252 1 109.50000 418.400000
3785 15917 6504 1 109.50000 418.400000
6140 15917 6252 1 109.50000 418.400000
6140 15917 6504 1 109.50000 418.400000
6252 15917 6504 1 109.50000 418.400000
5923 15918 6104 1 109.50000 418.400000
5923 15918 8209 1 109.50000 418.400000
5923 15918 10951 1 109.50000 418.400000
6104 15918 8209 1 109.50000 418.400000
6104 15918 10951 1 109.50000 418.400000
8209 15918 10951 1 109.50000 418.400000
6564 15919 7545 1 109.50000 418.400000
6564 15919 7599 1 109.50000 418.400000
6564 15919 7998 1 109.50000 418.400000
7545 15919 7599 1 109.50000 418.400000
7545 15919 7998 1 109.50000 418.400000
7599 15919 7998 1 109.50000 418.400000
2119 15920 8387 1 109.50000 418.400000
2119 15920 8690 1 109.50000 418.400000
2119 15920 10641 1 109.50000 418.400000
8387 15920 8690 1 109.50000 418.400000
8387 15920 10641 1 109.50000 418.400000
8690 15920 10641 1 109.50000 418.400000
2056 15921 3636 1 109.50000 418.400000
2056 15921 8099 1 109.50000 418.400000
2056 15921 8101 1 109.50000 418.400000
3636 15921 8099 1 109.50000 418.400000
3636 15921 8101 1 109.50000 418.400000
8099 15921 8101 1 109.50000 418.400000
9199 15922 9595 1 109.50000 418.400000
9199 15922 9597 1 109.50000 418.400000
9199 15922 10643 1 109.50000 418.400000
9595 15922 9597 1 109.50000 418.400000
9595 15922 10643 1 109.50000 418.400000
9597 15922 10643 1 109.50000 418.400000
9200 15923 9871 1 109.50000 418.400000
9200 15923 9894 1 109.50000 418.400000
9200 15923 10531 1 109.50000 418.400000
9871 15923 9894 1 109.50000 418.400000
9871 15923 10531 1 109.50000 418.400000
9894 15923 10531 1 109.50000 418.400000
3033 15924 4759 1 109.50000 418.400000
3033 15924 10622 1 109.50000 418.400000
3033 15924 10662 1 109.50000 418.400000
4759 15924 10622 1 109.50000 418.400000
4759 15924 10662 1 109.50000 418.400000
10622 15924 10662 1 109.50000 418.400000
7752 15925 10460 1 109.50000 418.400000
7752 15925 10663 1 109.50000 418.400000
7752 15925 10992 1 109.50000 418.400000
10460 15925 10663 1 109.50000 418.400000
10460 15925 10992 1 109.50000 418.400000
10663 15925 10992 1 109.50000 418.400000
2737 15926 5238 1 109.50000 418.400000
2737 15926 5239 1 109.50000 418.400000
2737 15926 9820 1 109.50000 418.400000
5238 15926 5239 1 109.50000 418.400000
5238 15926 9820 1 109.50000 418.400000
5239 15926 9820 1 109.50000 418.400000
6644 15927 8276 1 109.50000 418.400000
6644 15927 9778 1 109.50000 418.400000
6644 15927 10838 1 109.50000 418.400000
8276 15927 9778 1 109.50000 418.400000
8276 15927 10838 1 109.50000 418.400000
9778 15927 10838 1 109.50000 418.400000
5886 15928 8266 1 109.50000 418.400000
5886 15928 10738 1 109.50000 418.400000
5886 15928 10993 1 109.50000 418.400000
8266 15928 10738 1 109.50000 418.400000
8266 15928 10993 1 109.50000 418.400000
10738 15928 10993 1 109.50000 418.400000
3314 15929 6979 1 109.50000 418.400000
3314 15929 8698 1 109.50000 418.400000
3314 15929 9409 1 109.50000 418.400000
6979 15929 8698 1 109.50000 418.400000
6979 15929 9409 1 109.50000 418.400000
8698 15929 9409 1 109.50000 418.400000
5850 15930 6958 1 109.50000 418.400000
5850 15930 10727 1 109.50000 418.400000
5850 15930 10994 1 109.50000 418.400000
6958 15930 10727 1 109.50000 418.400000
6958 15930 10994 1 109.50000 418.400000
10727 15930 10994 1 109.50000 418.400000
67 15931 1300 1 109.50000 418.400000
67 15931 6408 1 109.50000 418.400000
67 15931 10816 1 109.50000 418.400000
1300 15931 6408 1 109.50000 418.400000
1300 15931 10816 1 109.50000 418.400000
6408 15931 10816 1 109.50000 418.400000
182 15932 8148 1 109.50000 418.400000
182 15932 8149 1 109.50000 418.400000
182 15932 10970 1 109.50000 418.400000
8148 15932 8149 1 109.50000 418.400000
8148 15932 10970 1 109.50000 418.400000
8149 15932 10970 1 109.50000 418.400000
3085 15933 5476 1 109.50000 418.400000
3085 15933 5553 1 109.50000 418.400000
3085 15933 8907 1 109.50000 418.400000
5476 15933 5553 1 109.50000 418.400000
5476 15933 8907 1 109.50000 418.400000
5553 15933 8907 1 109.50000 418.400000
2113 15934 7148 1 109.50000 418.400000
2113 15934 9667 1 109.50000 418.400000
2113 15934 9920 1 109.50000 418.400000
7148 15934 9667 1 109.50000 418.400000
7148 15934 9920 1 109.50000 418.400000
9667 15934 9920 1 109.50000 418.400000
7917 15935 8894 1 109.50000 418.400000
7917 15935 9196 1 109.50000 418.400000
7917 15935 10434 1 109.50000 418.400000
8894 15935 9196 1 109.50000 418.400000
8894 15935 10434 1 109.50000 418.400000
9196 15935 10434 1 109.50000 418.400000
852 15936 7932 1 109.50000 418.400000
852 15936 9921 1 109.50000 418.400000
852 15936 10635 1 109.50000 418.400000
7932 15936 9921 1 109.50000 418.400000
7932 15936 10635 1 109.50000 418.400000
9921 15936 10635 1 109.50000 418.400000
5362 15937 6722 1 109.50000 418.400000
5362 15937 7263 1 109.50000 418.400000
5362 15937 10656 1 109.50000 418.400000
6722 15937 7263 1 109.50000 418.400000
6722 15937 10656 1 109.50000 418.400000
7263 15937 10656 1 109.50000 418.400000
3080 15938 8376 1 109.50000 418.400000
3080 15938 9345 1 109.50000 418.400000
3080 15938 10612 1 109.50000 418.400000
8376 15938 9345 1 109.50000 418.400000
8376 15938 10612 1 109.50000 418.400000
9345 15938 10612 1 109.50000 418.400000
7575 15939 9945 1 109.50000 418.400000
7575 15939 10018 1 109.50000 418.400000
7575 15939 10109 1 109.50000 418.400000
9945 15939 10018 1 109.50000 418.400000
9945 15939 10109 1 109.50000 418.400000
10018 15939 10109 1 109.50000 418.400000
730 15940 6566 1 109.50000 418.400000
730 15940 10067 1 109.50000 418.400000
730 15940 10996 1 109.50000 418.400000
6566 15940 10067 1 109.50000 418.400000
6566 15940 10996 1 109.50000 418.400000
10067 15940 10996 1 109.50000 418.400000
1488 15941 3765 1 109.50000 418.400000
1488 15941 10469 1 109.50000 418.400000
1488 15941 10997 1 109.50000 418.400000
3765 15941 10469 1 109.50000 418.400000
3765 15941 10997 1 109.50000 418.400000
10469 15941 10997 1 109.50000 418.400000
1637 15942 5766 1 109.50000 418.400000
1637 15942 5989 1 109.50000 418.400000
1637 15942 9182 1 109.50000 418.400000
5766 15942 5989 1 109.50000 418.400000
5766 15942 9182 1 109.50000 418.400000
5989 15942 9182 1 109.50000 418.400000
4339 15943 9625 1 109.50000 418.400000
4339 15943 10427 1 109.50000 418.400000
4339 15943 10820 1 109.50000 418.400000
9625 15943 10427 1 109.50000 418.400000
9625 15943 10820 1 109.50000 418.400000
10427 15943 10820 1 109.50000 418.400000
4380 15944 5548 1 109.50000 418.400000
4380 15944 9705 1 109.50000 418.400000
4380 15944 9707 1 109.50000 418.400000
5548 15944 9705 1 109.50000 418.400000
5548 15944 9707 1 109.50000 418.400000
9705 15944 9707 1 109.50000 418.400000
1183 15945 6799 1 109.50000 418.400000
1183 15945 7163 1 109.50000 418.400000
1183 15945 10977 1 109.50000 418.400000
6799 15945 7163 1 109.50000 418.400000
6799 15945 10977 1 109.50000 418.400000
7163 15945 10977 1 109.50000 418.400000
4190 15946 7090 1 109.50000 418.400000
4190 15946 7634 1 109.50000 418.400000
4190 15946 10599 1 109.50000 418.400000
7090 15946 7634 1 109.50000 418.400000
7090 15946 10599 1 109.50000 418.400000
7634 15946 10599 1 109.50000 418.400000
4217 15947 6060 1 109.50000 418.400000
4217 15947 10735 1 109.50000 418.400000
4217 15947 10998 1 109.50000 418.400000
6060 15947 10735 1 109.50000 418.400000
6060 15947 10998 1 109.50000 418.400000
10735 15947 10998 1 109.50000 418.400000
100 15948 4258 1 109.50000 418.400000
100 15948 7890 1 109.50000 418.400000
100 15948 9996 1 109.50000 418.400000
4258 15948 7890 1 109.50000 418.400000
4258 15948 9996 1 109.50000 418.400000
7890 15948 9996 1 109.50000 418.400000
5289 15949 7853 1 109.50000 418.400000
5289 15949 10999 1 109.50000 418.400000
5289 15949 11000 1 109.50000 418.400000
7853 15949 10999 1 109.50000 418.400000
7853 15949 11000 1 109.50000 418.400000
10999 15949 11000 1 109.50000 418.400000
7047 15950 7541 1 109.50000 418.400000
7047 15950 11001 1 109.50000 418.400000
7047 15950 11002 1 109.50000 418.400000
7541 15950 11001 1 109.50000 418.400000
7541 15950 11002 1 109.50000 418.400000
11001 15950 11002 1 109.50000 418.400000
1179 15951 5263 1 109.50000 418.400000
1179 15951 5636 1 109.50000 418.400000
1179 15951 7160 1 109.50000 418.400000
5263 15951 5636 1 109.50000 418.400000
5263 15951 7160 1 109.50000 418.400000
5636 15951 7160 1 109.50000 418.400000
2409 15952 4398 1 109.50000 418.400000
2409 15952 11003 1 109.50000 418.400000
2409 15952 11004 1 109.50000 418.400000
4398 15952 11003 1 109.50000 418.400000
4398 15952 11004 1 109.50000 418.400000
11003 15952 11004 1 109.50000 418.400000
5244 15953 6271 1 109.50000 418.400000
5244 15953 9675 1 109.50000 418.400000
5244 15953 10204 1 109.50000 418.400000
6271 15953 9675 1 109.50000 418.400000
6271 15953 10204 1 109.50000 418.400000
9675 15953 10204 1 109.50000 418.400000
901 15954 4360 1 109.50000 418.400000
901 15954 6944 1 109.50000 418.400000
901 15954 8640 1 109.50000 418.400000
4360 15954 6944 1 109.50000 418.400000
4360 15954 8640 1 109.50000 418.400000
6944 15954 8640 1 109.50000 418.400000
6432 15955 8889 1 109.50000 418.400000
6432 15955 9221 1 109.50000 418.400000
6432 15955 9786 1 109.50000 418.400000
8889 15955 9221 1 109.50000 418.400000
8889 15955 9786 1 109.50000 418.400000
9221 15955 9786 1 109.50000 418.400000
231 15956 6718 1 109.50000 418.400000
231 15956 9372 1 109.50000 418.400000
231 15956 10016 1 109.50000 418.400000
6718 15956 9372 1 109.50000 418.400000
6718 15956 10016 1 109.50000 418.400000
9372 15956 10016 1 109.50000 418.400000
1784 15957 2536 1 109.50000 418.400000
1784 15957 4410 1 109.50000 418.400000
1784 15957 4757 1 109.50000 418.400000
2536 15957 4410 1 109.50000 418.400000
2536 15957 4757 1 109.50000 418.400000
4410 15957 4757 1 109.50000 418.400000
1728 15958 9257 1 109.50000 418.400000
1728 15958 9435 1 109.50000 418.400000
1728 15958 9726 1 109.50000 418.400000
9257 15958 9435 1 109.50000 418.400000
9257 15958 9726 1 109.50000 418.400000
9435 15958 9726 1 109.50000 418.400000
1700 15959 3399 1 109.50000 418.400000
1700 15959 10535 1 109.50000 418.400000
1700 15959 11005 1 109.50000 418.400000
3399 15959 10535 1 109.50000 418.400000
3399 15959 11005 1 109.50000 418.400000
10535 15959 11005 1 109.50000 418.400000
6680 15960 7140 1 109.50000 418.400000
6680 15960 10926 1 109.50000 418.400000
6680 15960 10928 1 109.50000 418.400000
7140 15960 10926 1 109.50000 418.400000
7140 15960 10928 1 109.50000 418.400000
10926 15960 10928 1 109.50000 418.400000
3795 15961 4990 1 109.50000 418.400000
3795 15961 8824 1 109.50000 418.400000
3795 15961 10962 1 109.50000 418.400000
4990 15961 8824 1 109.50000 418.400000
4990 15961 10962 1 109.50000 418.400000
8824 15961 10962 1 109.50000 418.400000
2259 15962 5129 1 109.50000 418.400000
2259 15962 7335 1 109.50000 418.400000
2259 15962 9294 1 109.50000 418.400000
5129 15962 7335 1 109.50000 418.400000
5129 15962 9294 1 109.50000 418.400000
7335 15962 9294 1 109.50000 418.400000
2198 15963 3711 1 109.50000 418.400000
2198 15963 6114 1 109.50000 418.400000
2198 15963 10275 1 109.50000 418.400000
3711 15963 6114 1 109.50000 418.400000
3711 15963 10275 1 109.50000 418.400000
6114 15963 10275 1 109.50000 418.400000
4852 15964 8378 1 109.50000 418.400000
4852 15964 8933 1 109.50000 418.400000
4852 15964 9279 1 109.50000 418.400000
8378 15964 8933 1 109.50000 418.400000
8378 15964 9279 1 109.50000 418.400000
8933 15964 9279 1 109.50000 418.400000
8429 15965 11007 1 109.50000 418.400000
8429 15965 11008 1 109.50000 418.400000
8429 15965 11204 1 109.50000 418.400000
11007 15965 11008 1 109.50000 418.400000
11007 15965 11204 1 109.50000 418.400000
11008 15965 11204 1 109.50000 418.400000
1293 15966 8472 1 109.50000 418.400000
1293 15966 9646 1 109.50000 418.400000
1293 15966 10563 1 109.50000 418.400000
8472 15966 9646 1 109.50000 418.400000
8472 15966 10563 1 109.50000 418.400000
9646 15966 10563 1 109.50000 418.400000
789 15967 1245 1 109.50000 418.400000
789 15967 10484 1 109.50000 418.400000
789 15967 10955 1 109.50000 418.400000
1245 15967 10484 1 109.50000 418.400000
1245 15967 10955 1 109.50000 418.400000
10484 15967 10955 1 109.50000 418.400000
6425 15968 10611 1 109.50000 418.400000
6425 15968 11009 1 109.50000 418.400000
6425 15968 11290 1 109.50000 418.400000
10611 15968 11009 1 109.50000 418.400000
10611 15968 11290 1 109.50000 418.400000
11009 15968 11290 1 109.50000 418.400000
5058 15969 9500 1 109.50000 418.400000
5058 15969 9650 1 109.50000 418.400000
5058 15969 10758 1 109.50000 418.400000
9500 15969 9650 1 109.50000 418.400000
9500 15969 10758 1 109.50000 418.400000
9650 15969 10758 1 109.50000 418.400000
6091 15970 8522 1 109.50000 418.400000
6091 15970 8902 1 109.50000 418.400000
6091 15970 10925 1 109.50000 418.400000
8522 15970 8902 1 109.50000 418.400000
8522 15970 10925 1 109.50000 418.400000
8902 15970 10925 1 109.50000 418.400000
2354 15971 6078 1 109.50000 418.400000
2354 15971 9913 1 109.50000 418.400000
2354 15971 10969 1 109.50000 418.400000
6078 15971 9913 1 109.50000 418.400000
6078 15971 10969 1 109.50000 418.400000
9913 15971 10969 1 109.50000 418.400000
2518 15972 3100 1 109.50000 418.400000
2518 15972 10950 1 109.50000 418.400000
2518 15972 11217 1 109.50000 418.400000
3100 15972 10950 1 109.50000 418.400000
3100 15972 11217 1 109.50000 418.400000
10950 15972 11217 1 109.50000 418.400000
4416 15973 8402 1 109.50000 418.400000
4416 15973 10187 1 109.50000 418.400000
4416 15973 10435 1 109.50000 418.400000
8402 15973 10187 1 109.50000 418.400000
8402 15973 10435 1 109.50000 418.400000
10187 15973 10435 1 109.50000 418.400000
5080 15974 7318 1 109.50000 418.400000
5080 15974 8888 1 109.50000 418.400000
5080 15974 10543 1 109.50000 418.400000
7318 15974 8888 1 109.50000 418.400000
7318 15974 10543 1 109.50000 418.400000
8888 15974 10543 1 109.50000 418.400000
4899 15975 10466 1 109.50000 418.400000
4899 15975 10523 1 109.50000 418.400000
4899 15975 11010 1 109.50000 418.400000
10466 15975 10523 1 109.50000 418.400000
10466 15975 11010 1 109.50000 418.400000
10523 15975 11010 1 109.50000 418.400000
998 15976 2402 1 109.50000 418.400000
998 15976 8006 1 109.50000 418.400000
998 15976 9185 1 109.50000 418.400000
2402 15976 8006 1 109.50000 418.400000
2402 15976 9185 1 109.50000 418.400000
8006 15976 9185 1 109.50000 418.400000
8574 15977 8583 1 109.50000 418.400000
8574 15977 9543 1 109.50000 418.400000
8574 15977 10905 1 109.50000 418.400000
8583 15977 9543 1 109.50000 418.400000
8583 15977 10905 1 109.50000 418.400000
9543 15977 10905 1 109.50000 418.400000
2599 15978 5100 1 109.50000 418.400000
2599 15978 11011 1 109.50000 418.400000
2599 15978 11072 1 109.50000 418.400000
5100 15978 11011 1 109.50000 418.400000
5100 15978 11072 1 109.50000 418.400000
11011 15978 11072 1 109.50000 418.400000
879 15979 5096 1 109.50000 418.400000
879 15979 7642 1 109.50000 418.400000
879 15979 10136 1 109.50000 418.400000
5096 15979 7642 1 109.50000 418.400000
5096 15979 10136 1 109.50000 418.400000
7642 15979 10136 1 109.50000 418.400000
1967 15980 4386 1 109.50000 418.400000
1967 15980 8123 1 109.50000 418.400000
1967 15980 9794 1 109.50000 418.400000
4386 15980 8123 1 109.50000 418.400000
4386 15980 9794 1 109.50000 418.400000
8123 15980 9794 1 109.50000 418.400000
548 15981 1880 1 109.50000 418.400000
548 15981 3857 1 109.50000 418.400000
548 15981 11012 1 109.50000 418.400000
1880 15981 3857 1 109.50000 418.400000
1880 15981 11012 1 109.50000 418.400000
3857 15981 11012 1 109.50000 418.400000
2242 15982 9120 1 109.50000 418.400000
2242 15982 10927 1 109.50000 418.400000
2242 15982 11013 1 109.50000 418.400000
9120 15982 10927 1 109.50000 418.400000
9120 15982 11013 1 109.50000 418.400000
10927 15982 11013 1 109.50000 418.400000
5366 15983 5725 1 109.50000 418.400000
5366 15983 10980 1 109.50000 418.400000
5366 15983 11014 1 109.50000 418.400000
5725 15983 10980 1 109.50000 418.400000
5725 15983 11014 1 109.50000 418.400000
10980 15983 11014 1 109.50000 418.400000
5632 15984 5633 1 109.50000 418.400000
5632 15984 10169 1 109.50000 418.400000
5632 15984 11015 1 109.50000 418.400000
5633 15984 10169 1 109.50000 418.400000
5633 15984 11015 1 109.50000 418.400000
10169 15984 11015 1 109.50000 418.400000
2006 15985 7362 1 109.50000 418.400000
2006 15985 7915 1 109.50000 418.400000
2006 15985 11016 1 109.50000 418.400000
7362 15985 7915 1 109.50000 418.400000
7362 15985 11016 1 109.50000 418.400000
7915 15985 11016 1 109.50000 418.400000
1403 15986 4357 1 109.50000 418.400000
1403 15986 10739 1 109.50000 418.400000
1403 15986 10930 1 109.50000 418.400000
4357 15986 10739 1 109.50000 418.400000
4357 15986 10930 1 109.50000 418.400000
10739 15986 10930 1 109.50000 418.400000
9604 15987 10163 1 109.50000 418.400000
9604 15987 11018 1 109.50000 418.400000
9604 15987 11019 1 109.50000 418.400000
10163 15987 11018 1 109.50000 418.400000
10163 15987 11019 1 109.50000 418.400000
11018 15987 11019 1 109.50000 418.400000
6848 15988 7155 1 109.50000 418.400000
6848 15988 10697 1 109.50000 418.400000
6848 15988 10952 1 109.50000 418.400000
7155 15988 10697 1 109.50000 418.400000
7155 15988 10952 1 109.50000 418.400000
10697 15988 10952 1 109.50000 418.400000
661 15989 1304 1 109.50000 418.400000
661 15989 7350 1 109.50000 418.400000
661 15989 10338 1 109.50000 418.400000
1304 15989 7350 1 109.50000 418.400000
1304 15989 10338 1 109.50000 418.400000
7350 15989 10338 1 109.50000 418.400000
3021 15990 7052 1 109.50000 418.400000
3021 15990 9781 1 109.50000 418.400000
3021 15990 9930 1 109.50000 418.400000
7052 15990 9781 1 109.50000 418.400000
7052 15990 9930 1 109.50000 418.400000
9781 15990 9930 1 109.50000 418.400000
4790 15991 9021 1 109.50000 418.400000
4790 15991 10756 1 109.50000 418.400000
4790 15991 11168 1 109.50000 418.400000
9021 15991 10756 1 109.50000 418.400000
9021 15991 11168 1 109.50000 418.400000
10756 15991 11168 1 109.50000 418.400000
7091 15992 7092 1 109.50000 418.400000
7091 15992 8208 1 109.50000 418.400000
7091 15992 10301 1 109.50000 418.400000
7092 15992 8208 1 109.50000 418.400000
7092 15992 10301 1 109.50000 418.400000
8208 15992 10301 1 109.50000 418.400000
5699 15993 8064 1 109.50000 418.400000
5699 15993 10372 1 109.50000 418.400000
5699 15993 10936 1 109.50000 418.400000
8064 15993 10372 1 109.50000 418.400000
8064 15993 10936 1 109.50000 418.400000
10372 15993 10936 1 109.50000 418.400000
919 15994 2926 1 109.50000 418.400000
919 15994 9611 1 109.50000 418.400000
919 15994 10260 1 109.50000 418.400000
2926 15994 9611 1 109.50000 418.400000
2926 15994 10260 1 109.50000 418.400000
9611 15994 10260 1 109.50000 418.400000
8274 15995 8943 1 109.50000 418.400000
8274 15995 10730 1 109.50000 418.400000
8274 15995 11020 1 109.50000 418.400000
8943 15995 10730 1 109.50000 418.400000
8943 15995 11020 1 109.50000 418.400000
10730 15995 11020 1 109.50000 418.400000
5695 15996 8490 1 109.50000 418.400000
5695 15996 10319 1 109.50000 418.400000
5695 15996 11022 1 109.50000 418.400000
8490 15996 10319 1 109.50000 418.400000
8490 15996 11022 1 109.50000 418.400000
10319 15996 11022 1 109.50000 418.400000
183 15997 9733 1 109.50000 418.400000
183 15997 10364 1 109.50000 418.400000
183 15997 11023 1 109.50000 418.400000
9733 15997 10364 1 109.50000 418.400000
9733 15997 11023 1 109.50000 418.400000
10364 15997 11023 1 109.50000 418.400000
7108 15998 7789 1 109.50000 418.400000
7108 15998 10915 1 109.50000 418.400000
7108 15998 10966 1 109.50000 418.400000
7789 15998 10915 1 109.50000 418.400000
7789 15998 10966 1 109.50000 418.400000
10915 15998 10966 1 109.50000 418.400000
585 15999 2153 1 109.50000 418.400000
585 15999 2204 1 109.50000 418.400000
585 15999 2820 1 109.50000 418.400000
2153 15999 2204 1 109.50000 418.400000
2153 15999 2820 1 109.50000 418.400000
2204 15999 2820 1 109.50000 418.400000
4585 16000 7277 1 109.50000 418.400000
4585 16000 7279 1 109.50000 418.400000
4585 16000 10346 1 109.50000 418.400000
7277 16000 7279 1 109.50000 418.400000
7277 16000 10346 1 109.50000 418.400000
7279 16000 10346 1 109.50000 418.400000
2430 16001 2946 1 109.50000 418.400000
2430 16001 4298 1 109.50000 418.400000
2430 16001 7417 1 109.50000 418.400000
2946 16001 4298 1 109.50000 418.400000
2946 16001 7417 1 109.50000 418.400000
4298 16001 7417 1 109.50000 418.400000
115 16002 4165 1 109.50000 418.400000
115 16002 8098 1 109.50000 418.400000
115 16002 10208 1 109.50000 418.400000
4165 16002 8098 1 109.50000 418.400000
4165 16002 10208 1 109.50000 418.400000
8098 16002 10208 1 109.50000 418.400000
2742 16003 9553 1 109.50000 418.400000
2742 16003 11024 1 109.50000 418.400000
2742 16003 11025 1 109.50000 418.400000
9553 16003 11024 1 109.50000 418.400000
9553 16003 11025 1 109.50000 418.400000
11024 16003 11025 1 109.50000 418.400000
5755 16004 6206 1 109.50000 418.400000
5755 16004 9536 1 109.50000 418.400000
5755 16004 11026 1 109.50000 418.400000
6206 16004 9536 1 109.50000 418.400000
6206 16004 11026 1 109.50000 418.400000
9536 16004 11026 1 109.50000 418.400000
7473 16005 8803 1 109.50000 418.400000
7473 16005 10091 1 109.50000 418.400000
7473 16005 10871 1 109.50000 418.400000
8803 16005 10091 1 109.50000 418.400000
8803 16005 10871 1 109.50000 418.400000
10091 16005 10871 1 109.50000 418.400000
7060 16006 7649 1 109.50000 418.400000
7060 16006 9462 1 109.50000 418.400000
7060 16006 10458 1 109.50000 418.400000
7649 16006 9462 1 109.50000 418.400000
7649 16006 10458 1 109.50000 418.400000
9462 16006 10458 1 109.50000 418.400000
7586 16007 9111 1 109.50000 418.400000
7586 16007 10442 1 109.50000 418.400000
7586 16007 10607 1 109.50000 418.400000
9111 16007 10442 1 109.50000 418.400000
9111 16007 10607 1 109.50000 418.400000
10442 16007 10607 1 109.50000 418.400000
7924 16008 8988 1 109.50000 418.400000
7924 16008 10490 1 109.50000 418.400000
7924 16008 11027 1 109.50000 418.400000
8988 16008 10490 1 109.50000 418.400000
8988 16008 11027 1 109.50000 418.400000
10490 16008 11027 1 109.50000 418.400000
7411 16009 8403 1 109.50000 418.400000
7411 16009 9134 1 109.50000 418.400000
7411 16009 10305 1 109.50000 418.400000
8403 16009 9134 1 109.50000 418.400000
8403 16009 10305 1 109.50000 418.400000
9134 16009 10305 1 109.50000 418.400000
1930 16010 9177 1 109.50000 418.400000
1930 16010 10318 1 109.50000 418.400000
1930 16010 11028 1 109.50000 418.400000
9177 16010 10318 1 109.50000 418.400000
9177 16010 11028 1 109.50000 418.400000
10318 16010 11028 1 109.50000 418.400000
7472 16011 7895 1 109.50000 418.400000
7472 16011 11029 1 109.50000 418.400000
7472 16011 11030 1 109.50000 418.400000
7895 16011 11029 1 109.50000 418.400000
7895 16011 11030 1 109.50000 418.400000
11029 16011 11030 1 109.50000 418.400000
9108 16012 10483 1 109.50000 418.400000
9108 16012 10498 1 109.50000 418.400000
9108 16012 11031 1 109.50000 418.400000
10483 16012 10498 1 109.50000 418.400000
10483 16012 11031 1 109.50000 418.400000
10498 16012 11031 1 109.50000 418.400000
2086 16013 9664 1 109.50000 418.400000
2086 16013 10655 1 109.50000 418.400000
2086 16013 10770 1 109.50000 418.400000
9664 16013 10655 1 109.50000 418.400000
9664 16013 10770 1 109.50000 418.400000
10655 16013 10770 1 109.50000 418.400000
1871 16014 6659 1 109.50000 418.400000
1871 16014 7015 1 109.50000 418.400000
1871 16014 7723 1 109.50000 418.400000
6659 16014 7015 1 109.50000 418.400000
6659 16014 7723 1 109.50000 418.400000
7015 16014 7723 1 109.50000 418.400000
110 16015 1198 1 109.50000 418.400000
110 16015 4754 1 109.50000 418.400000
110 16015 4755 1 109.50000 418.400000
1198 16015 4754 1 109.50000 418.400000
1198 16015 4755 1 109.50000 418.400000
4754 16015 4755 1 109.50000 418.400000
5867 16016 10177 1 109.50000 418.400000
5867 16016 10520 1 109.50000 418.400000
5867 16016 10893 1 109.50000 418.400000
10177 16016 10520 1 109.50000 418.400000
10177 16016 10893 1 109.50000 418.400000
10520 16016 10893 1 109.50000 418.400000
3742 16017 8121 1 109.50000 418.400000
3742 16017 11012 1 109.50000 418.400000
3742 16017 11033 1 109.50000 418.400000
8121 16017 11012 1 109.50000 418.400000
8121 16017 11033 1 109.50000 418.400000
11012 16017 11033 1 109.50000 418.400000
1614 16018 6305 1 109.50000 418.400000
1614 16018 6993 1 109.50000 418.400000
1614 16018 10751 1 109.50000 418.400000
6305 16018 6993 1 109.50000 418.400000
6305 16018 10751 1 109.50000 418.400000
6993 16018 10751 1 109.50000 418.400000
7874 16019 10144 1 109.50000 418.400000
7874 16019 10462 1 109.50000 418.400000
7874 16019 10831 1 109.50000 418.400000
10144 16019 10462 1 109.50000 418.400000
10144 16019 10831 1 109.50000 418.400000
10462 16019 10831 1 109.50000 418.400000
2106 16020 5597 1 109.50000 418.400000
2106 16020 7319 1 109.50000 418.400000
2106 16020 10856 1 109.50000 418.400000
5597 16020 7319 1 109.50000 418.400000
5597 16020 10856 1 109.50000 418.400000
7319 16020 10856 1 109.50000 418.400000
4176 16021 5339 1 109.50000 418.400000
4176 16021 9155 1 109.50000 418.400000
4176 16021 10693 1 109.50000 418.400000
5339 16021 9155 1 109.50000 418.400000
5339 16021 10693 1 109.50000 418.400000
9155 16021 10693 1 109.50000 418.400000
1932 16022 3611 1 109.50000 418.400000
1932 16022 9101 1 109.50000 418.400000
1932 16022 10999 1 109.50000 418.400000
3611 16022 9101 1 109.50000 418.400000
3611 16022 10999 1 109.50000 418.400000
9101 16022 10999 1 109.50000 418.400000
2904 16023 7294 1 109.50000 418.400000
2904 16023 8561 1 109.50000 418.400000
2904 16023 10061 1 109.50000 418.400000
7294 16023 8561 1 109.50000 418.400000
7294 16023 10061 1 109.50000 418.400000
8561 16023 10061 1 109.50000 418.400000
165 16024 2621 1 109.50000 418.400000
165 16024 3505 1 109.50000 418.400000
165 16024 10182 1 109.50000 418.400000
2621 16024 3505 1 109.50000 418.400000
2621 16024 10182 1 109.50000 418.400000
3505 16024 10182 1 109.50000 418.400000
6118 16025 8756 1 109.50000 418.400000
6118 16025 9208 1 109.50000 418.400000
6118 16025 11034 1 109.50000 418.400000
8756 16025 9208 1 109.50000 418.400000
8756 16025 11034 1 109.50000 418.400000
9208 16025 11034 1 109.50000 418.400000
1853 16026 6289 1 109.50000 418.400000
1853 16026 6316 1 109.50000 418.400000
1853 16026 10883 1 109.50000 418.400000
6289 16026 6316 1 109.50000 418.400000
6289 16026 10883 1 109.50000 418.400000
6316 16026 10883 1 109.50000 418.400000
1323 16027 1342 1 109.50000 418.400000
1323 16027 2830 1 109.50000 418.400000
1323 16027 9036 1 109.50000 418.400000
1342 16027 2830 1 109.50000 418.400000
1342 16027 9036 1 109.50000 418.400000
2830 16027 9036 1 109.50000 418.400000
5702 16028 8566 1 109.50000 418.400000
5702 16028 9367 1 109.50000 418.400000
5702 16028 10890 1 109.50000 418.400000
8566 16028 9367 1 109.50000 418.400000
8566 16028 10890 1 109.50000 418.400000
9367 16028 10890 1 109.50000 418.400000
1157 16029 1468 1 109.50000 418.400000
1157 16029 8843 1 109.50000 418.400000
1157 16029 10143 1 109.50000 418.400000
1468 16029 8843 1 109.50000 418.400000
1468 16029 10143 1 109.50000 418.400000
8843 16029 10143 1 109.50000 418.400000
6570 16030 8267 1 109.50000 418.400000
6570 16030 9478 1 109.50000 418.400000
6570 16030 11004 1 109.50000 418.400000
8267 16030 9478 1 109.50000 418.400000
8267 16030 11004 1 109.50000 418.400000
9478 16030 11004 1 109.50000 418.400000
1521 16031 10452 1 109.50000 418.400000
1521 16031 10879 1 109.50000 418.400000
1521 16031 11035 1 109.50000 418.400000
10452 16031 10879 1 109.50000 418.400000
10452 16031 11035 1 109.50000 418.400000
10879 16031 11035 1 109.50000 418.400000
3671 16032 3763 1 109.50000 418.400000
3671 16032 4800 1 109.50000 418.400000
3671 16032 9444 1 109.50000 418.400000
3763 16032 4800 1 109.50000 418.400000
3763 16032 9444 1 109.50000 418.400000
4800 16032 9444 1 109.50000 418.400000
1310 16033 3155 1 109.50000 418.400000
1310 16033 7965 1 109.50000 418.400000
1310 16033 11036 1 109.50000 418.400000
3155 16033 7965 1 109.50000 418.400000
3155 16033 11036 1 109.50000 418.400000
7965 16033 11036 1 109.50000 418.400000
7639 16034 9055 1 109.50000 418.400000
7639 16034 9587 1 109.50000 418.400000
7639 16034 10679 1 109.50000 418.400000
9055 16034 9587 1 109.50000 418.400000
9055 16034 10679 1 109.50000 418.400000
9587 16034 10679 1 109.50000 418.400000
913 16035 8250 1 109.50000 418.400000
913 16035 10236 1 109.50000 418.400000
913 16035 11037 1 109.50000 418.400000
8250 16035 10236 1 109.50000 418.400000
8250 16035 11037 1 109.50000 418.400000
10236 16035 11037 1 109.50000 418.400000
2724 16036 4970 1 109.50000 418.400000
2724 16036 8598 1 109.50000 418.400000
2724 16036 9599 1 109.50000 418.400000
4970 16036 8598 1 109.50000 418.400000
4970 16036 9599 1 109.50000 418.400000
8598 16036 9599 1 109.50000 418.400000
607 16037 7211 1 109.50000 418.400000
607 16037 8921 1 109.50000 418.400000
607 16037 11038 1 109.50000 418.400000
7211 16037 8921 1 109.50000 418.400000
7211 16037 11038 1 109.50000 418.400000
8921 16037 11038 1 109.50000 418.400000
23 16038 10199 1 109.50000 418.400000
23 16038 10685 1 109.50000 418.400000
23 16038 10971 1 109.50000 418.400000
10199 16038 10685 1 109.50000 418.400000
10199 16038 10971 1 109.50000 418.400000
10685 16038 10971 1 109.50000 418.400000
6617 16039 8588 1 109.50000 418.400000
6617 16039 9756 1 109.50000 418.400000
6617 16039 11314 1 109.50000 418.400000
8588 16039 9756 1 109.50000 418.400000
8588 16039 11314 1 109.50000 418.400000
9756 16039 11314 1 109.50000 418.400000
1721 16040 5573 1 109.50000 418.400000
1721 16040 8732 1 109.50000 418.400000
1721 16040 10064 1 109.50000 418.400000
5573 16040 8732 1 109.50000 418.400000
5573 16040 10064 1 109.50000 418.400000
8732 16040 10064 1 109.50000 418.400000
6031 16041 6032 1 109.50000 418.400000
6031 16041 6494 1 109.50000 418.400000
6031 16041 10495 1 109.50000 418.400000
6032 16041 6494 1 109.50000 418.400000
6032 16041 10495 1 109.50000 418.400000
6494 16041 10495 1 109.50000 418.400000
2262 16042 8745 1 109.50000 418.400000
2262 16042 9373 1 109.50000 418.400000
2262 16042 10308 1 109.50000 418.400000
8745 16042 9373 1 109.50000 418.400000
8745 16042 10308 1 109.50000 418.400000
9373 16042 10308 1 109.50000 418.400000
1024 16043 1908 1 109.50000 418.400000
1024 16043 4101 1 109.50000 418.400000
1024 16043 10728 1 109.50000 418.400000
1908 16043 4101 1 109.50000 418.400000
1908 16043 10728 1 109.50000 418.400000
4101 16043 10728 1 109.50000 418.400000
233 16044 3059 1 109.50000 418.400000
233 16044 4478 1 109.50000 418.400000
233 16044 10185 1 109.50000 418.400000
3059 16044 4478 1 109.50000 418.400000
3059 16044 10185 1 109.50000 418.400000
4478 16044 10185 1 109.50000 418.400000
2539 16045 4469 1 109.50000 418.400000
2539 16045 10958 1 109.50000 418.400000
2539 16045 11039 1 109.50000 418.400000
4469 16045 10958 1 109.50000 418.400000
4469 16045 11039 1 109.50000 418.400000
10958 16045 11039 1 109.50000 418.400000
7130 16046 8470 1 109.50000 418.400000
7130 16046 8990 1 109.50000 418.400000
7130 16046 10946 1 109.50000 418.400000
8470 16046 8990 1 109.50000 418.400000
8470 16046 10946 1 109.50000 418.400000
8990 16046 10946 1 109.50000 418.400000
5635 16047 5805 1 109.50000 418.400000
5635 16047 10473 1 109.50000 418.400000
5635 16047 10810 1 109.50000 418.400000
5805 16047 10473 1 109.50000 418.400000
5805 16047 10810 1 109.50000 418.400000
10473 16047 10810 1 109.50000 418.400000
3159 16048 6420 1 109.50000 418.400000
3159 16048 7240 1 109.50000 418.400000
3159 16048 7241 1 109.50000 418.400000
6420 16048 7240 1 109.50000 418.400000
6420 16048 7241 1 109.50000 418.400000
7240 16048 7241 1 109.50000 418.400000
2129 16049 3870 1 109.50000 418.400000
2129 16049 4465 1 109.50000 418.400000
2129 16049 8486 1 109.50000 418.400000
3870 16049 4465 1 109.50000 418.400000
3870 16049 8486 1 109.50000 418.400000
4465 16049 8486 1 109.50000 418.400000
1509 16050 5818 1 109.50000 418.400000
1509 16050 10387 1 109.50000 418.400000
1509 16050 10885 1 109.50000 418.400000
5818 16050 10387 1 109.50000 418.400000
5818 16050 10885 1 109.50000 418.400000
10387 16050 10885 1 109.50000 418.400000
4316 16051 5316 1 109.50000 418.400000
4316 16051 6284 1 109.50000 418.400000
4316 16051 8992 1 109.50000 418.400000
5316 16051 6284 1 109.50000 418.400000
5316 16051 8992 1 109.50000 418.400000
6284 16051 8992 1 109.50000 418.400000
4022 16052 4025 1 109.50000 418.400000
4022 16052 9388 1 109.50000 418.400000
4022 16052 11040 1 109.50000 418.400000
4025 16052 9388 1 109.50000 418.400000
4025 16052 11040 1 109.50000 418.400000
9388 16052 11040 1 109.50000 418.400000
4505 16053 8126 1 109.50000 418.400000
4505 16053 8270 1 109.50000 418.400000
4505 16053 8495 1 109.50000 418.400000
8126 16053 8270 1 109.50000 418.400000
8126 16053 8495 1 109.50000 418.400000
8270 16053 8495 1 109.50000 418.400000
179 16054 4317 1 109.50000 418.400000
179 16054 8773 1 109.50000 418.400000
179 16054 10777 1 109.50000 418.400000
4317 16054 8773 1 109.50000 418.400000
4317 16054 10777 1 109.50000 418.400000
8773 16054 10777 1 109.50000 418.400000
3861 16055 10761 1 109.50000 418.400000
3861 16055 10924 1 109.50000 418.400000
3861 16055 10963 1 109.50000 418.400000
10761 16055 10924 1 109.50000 418.400000
10761 16055 10963 1 109.50000 418.400000
10924 16055 10963 1 109.50000 418.400000
4695 16056 9933 1 109.50000 418.400000
4695 16056 11041 1 109.50000 418.400000
4695 16056 11042 1 109.50000 418.400000
9933 16056 11041 1 109.50000 418.400000
9933 16056 11042 1 109.50000 418.400000
11041 16056 11042 1 109.50000 418.400000
4763 16057 5742 1 109.50000 418.400000
4763 16057 5744 1 109.50000 418.400000
4763 16057 9888 1 109.50000 418.400000
5742 16057 5744 1 109.50000 418.400000
5742 16057 9888 1 109.50000 418.400000
5744 16057 9888 1 109.50000 418.400000
2346 16058 4641 1 109.50000 418.400000
2346 16058 6227 1 109.50000 418.400000
2346 16058 7082 1 109.50000 418.400000
4641 16058 6227 1 109.50000 418.400000
4641 16058 7082 1 109.50000 418.400000
6227 16058 7082 1 109.50000 418.400000
1933 16059 10313 1 109.50000 418.400000
1933 16059 10721 1 109.50000 418.400000
1933 16059 10746 1 109.50000 418.400000
10313 16059 10721 1 109.50000 418.400000
10313 16059 10746 1 109.50000 418.400000
10721 16059 10746 1 109.50000 418.400000
309 16060 938 1 109.50000 418.400000
309 16060 11003 1 109.50000 418.400000
309 16060 11230 1 109.50000 418.400000
938 16060 11003 1 109.50000 418.400000
938 16060 11230 1 109.50000 418.400000
11003 16060 11230 1 109.50000 418.400000
964 16061 4784 1 109.50000 418.400000
964 16061 5898 1 109.50000 418.400000
964 16061 11043 1 109.50000 418.400000
4784 16061 5898 1 109.50000 418.400000
4784 16061 11043 1 109.50000 418.400000
5898 16061 11043 1 109.50000 418.400000
819 16062 6030 1 109.50000 418.400000
819 16062 9470 1 109.50000 418.400000
819 16062 10826 1 109.50000 418.400000
6030 16062 9470 1 109.50000 418.400000
6030 16062 10826 1 109.50000 418.400000
9470 16062 10826 1 109.50000 418.400000
2057 16063 4117 1 109.50000 418.400000
2057 16063 10343 1 109.50000 418.400000
2057 16063 10613 1 109.50000 418.400000
4117 16063 10343 1 109.50000 418.400000
4117 16063 10613 1 109.50000 418.400000
10343 16063 10613 1 109.50000 418.400000
8647 16064 10085 1 109.50000 418.400000
8647 16064 10303 1 109.50000 418.400000
8647 16064 11045 1 109.50000 418.400000
10085 16064 10303 1 109.50000 418.400000
10085 16064 11045 1 109.50000 418.400000
10303 16064 11045 1 109.50000 418.400000
4725 16065 7388 1 109.50000 418.400000
4725 16065 10070 1 109.50000 418.400000
4725 16065 10210 1 109.50000 418.400000
7388 16065 10070 1 109.50000 418.400000
7388 16065 10210 1 109.50000 418.400000
10070 16065 10210 1 109.50000 418.400000
5928 16066 7858 1 109.50000 418.400000
5928 16066 7896 1 109.50000 418.400000
5928 16066 8295 1 109.50000 418.400000
7858 16066 7896 1 109.50000 418.400000
7858 16066 8295 1 109.50000 418.400000
7896 16066 8295 1 109.50000 418.400000
6304 16067 10619 1 109.50000 418.400000
6304 16067 11046 1 109.50000 418.400000
6304 16067 11047 1 109.50000 418.400000
10619 16067 11046 1 109.50000 418.400000
10619 16067 11047 1 109.50000 418.400000
11046 16067 11047 1 109.50000 418.400000
1915 16068 6291 1 109.50000 418.400000
1915 16068 8446 1 109.50000 418.400000
1915 16068 10794 1 109.50000 418.400000
6291 16068 8446 1 109.50000 418.400000
6291 16068 10794 1 109.50000 418.400000
8446 16068 10794 1 109.50000 418.400000
9928 16069 10702 1 109.50000 418.400000
9928 16069 10745 1 109.50000 418.400000
9928 16069 11048 1 109.50000 418.400000
10702 16069 10745 1 109.50000 418.400000
10702 16069 11048 1 109.50000 418.400000
10745 16069 11048 1 109.50000 418.400000
3494 16070 5449 1 109.50000 418.400000
3494 16070 8321 1 109.50000 418.400000
3494 16070 11049 1 109.50000 418.400000
5449 16070 8321 1 109.50000 418.400000
5449 16070 11049 1 109.50000 418.400000
8321 16070 11049 1 109.50000 418.400000
1568 16071 2824 1 109.50000 418.400000
1568 16071 8451 1 109.50000 418.400000
1568 16071 8454 1 109.50000 418.400000
2824 16071 8451 1 109.50000 418.400000
2824 16071 8454 1 109.50000 418.400000
8451 16071 8454 1 109.50000 418.400000
1002 16072 2189 1 109.50000 418.400000
1002 16072 10799 1 109.50000 418.400000
1002 16072 11050 1 109.50000 418.400000
2189 16072 10799 1 109.50000 418.400000
2189 16072 11050 1 109.50000 418.400000
10799 16072 11050 1 109.50000 418.400000
2915 16073 7696 1 109.50000 418.400000
2915 16073 10529 1 109.50000 418.400000
2915 16073 10778 1 109.50000 418.400000
7696 16073 10529 1 109.50000 418.400000
7696 16073 10778 1 109.50000 418.400000
10529 16073 10778 1 109.50000 418.400000
3140 16074 6874 1 109.50000 418.400000
3140 16074 8903 1 109.50000 418.400000
3140 16074 9242 1 109.50000 418.400000
6874 16074 8903 1 109.50000 418.400000
6874 16074 9242 1 109.50000 418.400000
8903 16074 9242 1 109.50000 418.400000
8922 16075 9295 1 109.50000 418.400000
8922 16075 10273 1 109.50000 418.400000
8922 16075 10645 1 109.50000 418.400000
9295 16075 10273 1 109.50000 418.400000
9295 16075 10645 1 109.50000 418.400000
10273 16075 10645 1 109.50000 418.400000
791 16076 4491 1 109.50000 418.400000
791 16076 5413 1 109.50000 418.400000
791 16076 10230 1 109.50000 418.400000
4491 16076 5413 1 109.50000 418.400000
4491 16076 10230 1 109.50000 418.400000
5413 16076 10230 1 109.50000 418.400000
834 16077 1924 1 109.50000 418.400000
834 16077 8236 1 109.50000 418.400000
834 16077 10660 1 109.50000 418.400000
1924 16077 8236 1 109.50000 418.400000
1924 16077 10660 1 109.50000 418.400000
8236 16077 10660 1 109.50000 418.400000
7716 16078 8712 1 109.50000 418.400000
7716 16078 10553 1 109.50000 418.400000
7716 16078 11051 1 109.50000 418.400000
8712 16078 10553 1 109.50000 418.400000
8712 16078 11051 1 109.50000 418.400000
10553 16078 11051 1 109.50000 418.400000
4538 16079 5790 1 109.50000 418.400000
4538 16079 6640 1 109.50000 418.400000
4538 16079 8656 1 109.50000 418.400000
5790 16079 6640 1 109.50000 418.400000
5790 16079 8656 1 109.50000 418.400000
6640 16079 8656 1 109.50000 418.400000
95 16080 495 1 109.50000 418.400000
95 16080 4558 1 109.50000 418.400000
95 16080 9552 1 109.50000 418.400000
495 16080 4558 1 109.50000 418.400000
495 16080 9552 1 109.50000 418.400000
4558 16080 9552 1 109.50000 418.400000
2907 16081 2908 1 109.50000 418.400000
2907 16081 8540 1 109.50000 418.400000
2907 16081 10378 1 109.50000 418.400000
2908 16081 8540 1 109.50000 418.400000
2908 16081 10378 1 109.50000 418.400000
8540 16081 10378 1 109.50000 418.400000
4651 16082 10422 1 109.50000 418.400000
4651 16082 10760 1 109.50000 418.400000
4651 16082 11023 1 109.50000 418.400000
10422 16082 10760 1 109.50000 418.400000
10422 16082 11023 1 109.50000 418.400000
10760 16082 11023 1 109.50000 418.400000
10389 16083 10594 1 109.50000 418.400000
10389 16083 11020 1 109.50000 418.400000
10389 16083 11021 1 109.50000 418.400000
10594 16083 11020 1 109.50000 418.400000
10594 16083 11021 1 109.50000 418.400000
11020 16083 11021 1 109.50000 418.400000
4961 16084 10119 1 109.50000 418.400000
4961 16084 10306 1 109.50000 418.400000
4961 16084 11052 1 109.50000 418.400000
10119 16084 10306 1 109.50000 418.400000
10119 16084 11052 1 109.50000 418.400000
10306 16084 11052 1 109.50000 418.400000
2687 16085 4740 1 109.50000 418.400000
2687 16085 9745 1 109.50000 418.400000
2687 16085 11053 1 109.50000 418.400000
4740 16085 9745 1 109.50000 418.400000
4740 16085 11053 1 109.50000 418.400000
9745 16085 11053 1 109.50000 418.400000
4480 16086 4481 1 109.50000 418.400000
4480 16086 6824 1 109.50000 418.400000
4480 16086 11008 1 109.50000 418.400000
4481 16086 6824 1 109.50000 418.400000
4481 16086 11008 1 109.50000 418.400000
6824 16086 11008 1 109.50000 418.400000
5483 16087 8119 1 109.50000 418.400000
5483 16087 8947 1 109.50000 418.400000
5483 16087 9630 1 109.50000 418.400000
8119 16087 8947 1 109.50000 418.400000
8119 16087 9630 1 109.50000 418.400000
8947 16087 9630 1 109.50000 418.400000
7405 16088 9609 1 109.50000 418.400000
7405 16088 9610 1 109.50000 418.400000
7405 16088 9611 1 109.50000 418.400000
9609 16088 9610 1 109.50000 418.400000
9609 16088 9611 1 109.50000 418.400000
9610 16088 9611 1 109.50000 418.400000
104 16089 7826 1 109.50000 418.400000
104 16089 9079 1 109.50000 418.400000
104 16089 11056 1 109.50000 418.400000
7826 16089 9079 1 109.50000 418.400000
7826 16089 11056 1 109.50000 418.400000
9079 16089 11056 1 109.50000 418.400000
4423 16090 5226 1 109.50000 418.400000
4423 16090 5956 1 109.50000 418.400000
4423 16090 9872 1 109.50000 418.400000
5226 16090 5956 1 109.50000 418.400000
5226 16090 9872 1 109.50000 418.400000
5956 16090 9872 1 109.50000 418.400000
2456 16091 6621 1 109.50000 418.400000
2456 16091 8648 1 109.50000 418.400000
2456 16091 10357 1 109.50000 418.400000
6621 16091 8648 1 109.50000 418.400000
6621 16091 10357 1 109.50000 418.400000
8648 16091 10357 1 109.50000 418.400000
108 16092 170 1 109.50000 418.400000
108 16092 3078 1 109.50000 418.400000
108 16092 8065 1 109.50000 418.400000
170 16092 3078 1 109.50000 418.400000
170 16092 8065 1 109.50000 418.400000
3078 16092 8065 1 109.50000 418.400000
7761 16093 7829 1 109.50000 418.400000
7761 16093 8613 1 109.50000 418.400000
7761 16093 11038 1 109.50000 418.400000
7829 16093 8613 1 109.50000 418.400000
7829 16093 11038 1 109.50000 418.400000
8613 16093 11038 1 109.50000 418.400000
3194 16094 3196 1 109.50000 418.400000
3194 16094 8374 1 109.50000 418.400000
3194 16094 11037 1 109.50000 418.400000
3196 16094 8374 1 109.50000 418.400000
3196 16094 11037 1 109.50000 418.400000
8374 16094 11037 1 109.50000 418.400000
7869 16095 9450 1 109.50000 418.400000
7869 16095 10227 1 109.50000 418.400000
7869 16095 11006 1 109.50000 418.400000
9450 16095 10227 1 109.50000 418.400000
9450 16095 11006 1 109.50000 418.400000
10227 16095 11006 1 109.50000 418.400000
2929 16096 5227 1 109.50000 418.400000
2929 16096 9353 1 109.50000 418.400000
2929 16096 10190 1 109.50000 418.400000
5227 16096 9353 1 109.50000 418.400000
5227 16096 10190 1 109.50000 418.400000
9353 16096 10190 1 109.50000 418.400000
3321 16097 3718 1 109.50000 418.400000
3321 16097 10630 1 109.50000 418.400000
3321 16097 11057 1 109.50000 418.400000
3718 16097 10630 1 109.50000 418.400000
3718 16097 11057 1 109.50000 418.400000
10630 16097 11057 1 109.50000 418.400000
7095 16098 7670 1 109.50000 418.400000
7095 16098 9443 1 109.50000 418.400000
7095 16098 10722 1 109.50000 418.400000
7670 16098 9443 1 109.50000 418.400000
7670 16098 10722 1 109.50000 418.400000
9443 16098 10722 1 109.50000 418.400000
892 16099 8281 1 109.50000 418.400000
892 16099 10401 1 109.50000 418.400000
892 16099 11058 1 109.50000 418.400000
8281 16099 10401 1 109.50000 418.400000
8281 16099 11058 1 109.50000 418.400000
10401 16099 11058 1 109.50000 418.400000
4745 16100 8610 1 109.50000 418.400000
4745 16100 9692 1 109.50000 418.400000
4745 16100 10501 1 109.50000 418.400000
8610 16100 9692 1 109.50000 418.400000
8610 16100 10501 1 109.50000 418.400000
9692 16100 10501 1 109.50000 418.400000
2305 16101 8861 1 109.50000 418.400000
2305 16101 8970 1 109.50000 418.400000
2305 16101 11059 1 109.50000 418.400000
8861 16101 8970 1 109.50000 418.400000
8861 16101 11059 1 109.50000 418.400000
8970 16101 11059 1 109.50000 418.400000
7526 16102 9050 1 109.50000 418.400000
7526 16102 11060 1 109.50000 418.400000
7526 16102 11061 1 109.50000 418.400000
9050 16102 11060 1 109.50000 418.400000
9050 16102 11061 1 109.50000 418.400000
11060 16102 11061 1 109.50000 418.400000
1615 16103 3457 1 109.50000 418.400000
1615 16103 9099 1 109.50000 418.400000
1615 16103 10339 1 109.50000 418.400000
3457 16103 9099 1 109.50000 418.400000
3457 16103 10339 1 109.50000 418.400000
9099 16103 10339 1 109.50000 418.400000
3082 16104 7300 1 109.50000 418.400000
3082 16104 9941 1 109.50000 418.400000
3082 16104 11063 1 109.50000 418.400000
7300 16104 9941 1 109.50000 418.400000
7300 16104 11063 1 109.50000 418.400000
9941 16104 11063 1 109.50000 418.400000
3355 16105 5225 1 109.50000 418.400000
3355 16105 8226 1 109.50000 418.400000
3355 16105 10803 1 109.50000 418.400000
5225 16105 8226 1 109.50000 418.400000
5225 16105 10803 1 109.50000 418.400000
8226 16105 10803 1 109.50000 418.400000
7357 16106 8145 1 109.50000 418.400000
7357 16106 10354 1 109.50000 418.400000
7357 16106 10700 1 109.50000 418.400000
8145 16106 10354 1 109.50000 418.400000
8145 16106 10700 1 109.50000 418.400000
10354 16106 10700 1 109.50000 418.400000
3757 16107 8606 1 109.50000 418.400000
3757 16107 8691 1 109.50000 418.400000
3757 16107 10505 1 109.50000 418.400000
8606 16107 8691 1 109.50000 418.400000
8606 16107 10505 1 109.50000 418.400000
8691 16107 10505 1 109.50000 418.400000
2564 16108 3312 1 109.50000 418.400000
2564 16108 3684 1 109.50000 418.400000
2564 16108 8882 1 109.50000 418.400000
3312 16108 3684 1 109.50000 418.400000
3312 16108 8882 1 109.50000 418.400000
3684 16108 8882 1 109.50000 418.400000
2083 16109 2339 1 109.50000 418.400000
2083 16109 3316 1 109.50000 418.400000
2083 16109 11064 1 109.50000 418.400000
2339 16109 3316 1 109.50000 418.400000
2339 16109 11064 1 109.50000 418.400000
3316 16109 11064 1 109.50000 418.400000
489 16110 7798 1 109.50000 418.400000
489 16110 9610 1 109.50000 418.400000
489 16110 10642 1 109.50000 418.400000
7798 16110 9610 1 109.50000 418.400000
7798 16110 10642 1 109.50000 418.400000
9610 16110 10642 1 109.50000 418.400000
4373 16111 5576 1 109.50000 418.400000
4373 16111 7904 1 109.50000 418.400000
4373 16111 11065 1 109.50000 418.400000
5576 16111 7904 1 109.50000 418.400000
5576 16111 11065 1 109.50000 418.400000
7904 16111 11065 1 109.50000 418.400000
5195 16112 5503 1 109.50000 418.400000
5195 16112 9375 1 109.50000 418.400000
5195 16112 10561 1 109.50000 418.400000
5503 16112 9375 1 109.50000 418.400000
5503 16112 10561 1 109.50000 418.400000
9375 16112 10561 1 109.50000 418.400000
6571 16113 10073 1 109.50000 418.400000
6571 16113 10976 1 109.50000 418.400000
6571 16113 11066 1 109.50000 418.400000
10073 16113 10976 1 109.50000 418.400000
10073 16113 11066 1 109.50000 418.400000
10976 16113 11066 1 109.50000 418.400000
5680 16114 8147 1 109.50000 418.400000
5680 16114 9141 1 109.50000 418.400000
5680 16114 10524 1 109.50000 418.400000
8147 16114 9141 1 109.50000 418.400000
8147 16114 10524 1 109.50000 418.400000
9141 16114 10524 1 109.50000 418.400000
44 16115 807 1 109.50000 418.400000
44 16115 4858 1 109.50000 418.400000
44 16115 4988 1 109.50000 418.400000
807 16115 4858 1 109.50000 418.400000
807 16115 4988 1 109.50000 418.400000
4858 16115 4988 1 109.50000 418.400000
6059 16116 10041 1 109.50000 418.400000
6059 16116 10379 1 109.50000 418.400000
6059 16116 11068 1 109.50000 418.400000
10041 16116 10379 1 109.50000 418.400000
10041 16116 11068 1 109.50000 418.400000
10379 16116 11068 1 109.50000 418.400000
3529 16117 7111 1 109.50000 418.400000
3529 16117 8333 1 109.50000 418.400000
3529 16117 10682 1 109.50000 418.400000
7111 16117 8333 1 109.50000 418.400000
7111 16117 10682 1 109.50000 418.400000
8333 16117 10682 1 109.50000 418.400000
10030 16118 10544 1 109.50000 418.400000
10030 16118 11069 1 109.50000 418.400000
10030 16118 11335 1 109.50000 418.400000
10544 16118 11069 1 109.50000 418.400000
10544 16118 11335 1 109.50000 418.400000
11069 16118 11335 1 109.50000 418.400000
3406 16119 5580 1 109.50000 418.400000
3406 16119 6416 1 109.50000 418.400000
3406 16119 11070 1 109.50000 418.400000
5580 16119 6416 1 109.50000 418.400000
5580 16119 11070 1 109.50000 418.400000
6416 16119 11070 1 109.50000 418.400000
1092 16120 9907 1 109.50000 418.400000
1092 16120 10160 1 109.50000 418.400000
1092 16120 11071 1 109.50000 418.400000
9907 16120 10160 1 109.50000 418.400000
9907 16120 11071 1 109.50000 418.400000
10160 16120 11071 1 109.50000 418.400000
6863 16121 10933 1 109.50000 418.400000
6863 16121 11072 1 109.50000 418.400000
6863 16121 11073 1 109.50000 418.400000
10933 16121 11072 1 109.50000 418.400000
10933 16121 11073 1 109.50000 418.400000
11072 16121 11073 1 109.50000 418.400000
323 16122 2317 1 109.50000 418.400000
323 16122 5853 1 109.50000 418.400000
323 16122 11050 1 109.50000 418.400000
2317 16122 5853 1 109.50000 418.400000
2317 16122 11050 1 109.50000 418.400000
5853 16122 11050 1 109.50000 418.400000
8454 16123 10608 1 109.50000 418.400000
8454 16123 10943 1 109.50000 418.400000
8454 16123 10948 1 109.50000 418.400000
10608 16123 10943 1 109.50000 418.400000
10608 16123 10948 1 109.50000 418.400000
10943 16123 10948 1 109.50000 418.400000
4507 16124 7643 1 109.50000 418.400000
4507 16124 10095 1 109.50000 418.400000
4507 16124 10798 1 109.50000 418.400000
7643 16124 10095 1 109.50000 418.400000
7643 16124 10798 1 109.50000 418.400000
10095 16124 10798 1 109.50000 418.400000
833 16125 1720 1 109.50000 418.400000
833 16125 3848 1 109.50000 418.400000
833 16125 9624 1 109.50000 418.400000
1720 16125 3848 1 109.50000 418.400000
1720 16125 9624 1 109.50000 418.400000
3848 16125 9624 1 109.50000 418.400000
5544 16126 6401 1 109.50000 418.400000
5544 16126 7038 1 109.50000 418.400000
5544 16126 11074 1 109.50000 418.400000
6401 16126 7038 1 109.50000 418.400000
6401 16126 11074 1 109.50000 418.400000
7038 16126 11074 1 109.50000 418.400000
7982 16127 8934 1 109.50000 418.400000
7982 16127 9862 1 109.50000 418.400000
7982 16127 10429 1 109.50000 418.400000
8934 16127 9862 1 109.50000 418.400000
8934 16127 10429 1 109.50000 418.400000
9862 16127 10429 1 109.50000 418.400000
2522 16128 4681 1 109.50000 418.400000
2522 16128 7190 1 109.50000 418.400000
2522 16128 10717 1 109.50000 418.400000
4681 16128 7190 1 109.50000 418.400000
4681 16128 10717 1 109.50000 418.400000
7190 16128 10717 1 109.50000 418.400000
4106 16129 6040 1 109.50000 418.400000
4106 16129 9125 1 109.50000 418.400000
4106 16129 9126 1 109.50000 418.400000
6040 16129 9125 1 109.50000 418.400000
6040 16129 9126 1 109.50000 418.400000
9125 16129 9126 1 109.50000 418.400000
7802 16130 8130 1 109.50000 418.400000
7802 16130 9818 1 109.50000 418.400000
7802 16130 10968 1 109.50000 418.400000
8130 16130 9818 1 109.50000 418.400000
8130 16130 10968 1 109.50000 418.400000
9818 16130 10968 1 109.50000 418.400000
4748 16131 8538 1 109.50000 418.400000
4748 16131 9332 1 109.50000 418.400000
4748 16131 9863 1 109.50000 418.400000
8538 16131 9332 1 109.50000 418.400000
8538 16131 9863 1 109.50000 418.400000
9332 16131 9863 1 109.50000 418.400000
9064 16132 10861 1 109.50000 418.400000
9064 16132 10895 1 109.50000 418.400000
9064 16132 10975 1 109.50000 418.400000
10861 16132 10895 1 109.50000 418.400000
10861 16132 10975 1 109.50000 418.400000
10895 16132 10975 1 109.50000 418.400000
1257 16133 1577 1 109.50000 418.400000
1257 16133 8612 1 109.50000 418.400000
1257 16133 11076 1 109.50000 418.400000
1577 16133 8612 1 109.50000 418.400000
1577 16133 11076 1 109.50000 418.400000
8612 16133 11076 1 109.50000 418.400000
9139 16134 10411 1 109.50000 418.400000
9139 16134 10858 1 109.50000 418.400000
9139 16134 11075 1 109.50000 418.400000
10411 16134 10858 1 109.50000 418.400000
10411 16134 11075 1 109.50000 418.400000
10858 16134 11075 1 109.50000 418.400000
4074 16135 4313 1 109.50000 418.400000
4074 16135 4680 1 109.50000 418.400000
4074 16135 5906 1 109.50000 418.400000
4313 16135 4680 1 109.50000 418.400000
4313 16135 5906 1 109.50000 418.400000
4680 16135 5906 1 109.50000 418.400000
8228 16136 8812 1 109.50000 418.400000
8228 16136 10528 1 109.50000 418.400000
8228 16136 11028 1 109.50000 418.400000
8812 16136 10528 1 109.50000 418.400000
8812 16136 11028 1 109.50000 418.400000
10528 16136 11028 1 109.50000 418.400000
2355 16137 4004 1 109.50000 418.400000
2355 16137 9117 1 109.50000 418.400000
2355 16137 9285 1 109.50000 418.400000
4004 16137 9117 1 109.50000 418.400000
4004 16137 9285 1 109.50000 418.400000
9117 16137 9285 1 109.50000 418.400000
7536 16138 9106 1 109.50000 418.400000
7536 16138 10279 1 109.50000 418.400000
7536 16138 10310 1 109.50000 418.400000
9106 16138 10279 1 109.50000 418.400000
9106 16138 10310 1 109.50000 418.400000
10279 16138 10310 1 109.50000 418.400000
6302 16139 11009 1 109.50000 418.400000
6302 16139 11052 1 109.50000 418.400000
6302 16139 11219 1 109.50000 418.400000
11009 16139 11052 1 109.50000 418.400000
11009 16139 11219 1 109.50000 418.400000
11052 16139 11219 1 109.50000 418.400000
912 16140 2798 1 109.50000 418.400000
912 16140 6520 1 109.50000 418.400000
912 16140 11000 1 109.50000 418.400000
2798 16140 6520 1 109.50000 418.400000
2798 16140 11000 1 109.50000 418.400000
6520 16140 11000 1 109.50000 418.400000
3007 16141 5512 1 109.50000 418.400000
3007 16141 7916 1 109.50000 418.400000
3007 16141 11077 1 109.50000 418.400000
5512 16141 7916 1 109.50000 418.400000
5512 16141 11077 1 109.50000 418.400000
7916 16141 11077 1 109.50000 418.400000
1758 16142 5737 1 109.50000 418.400000
1758 16142 8731 1 109.50000 418.400000
1758 16142 9623 1 109.50000 418.400000
5737 16142 8731 1 109.50000 418.400000
5737 16142 9623 1 109.50000 418.400000
8731 16142 9623 1 109.50000 418.400000
3841 16143 7004 1 109.50000 418.400000
3841 16143 10904 1 109.50000 418.400000
3841 16143 10994 1 109.50000 418.400000
7004 16143 10904 1 109.50000 418.400000
7004 16143 10994 1 109.50000 418.400000
10904 16143 10994 1 109.50000 418.400000
365 16144 556 1 109.50000 418.400000
365 16144 1992 1 109.50000 418.400000
365 16144 10840 1 109.50000 418.400000
556 16144 1992 1 109.50000 418.400000
556 16144 10840 1 109.50000 418.400000
1992 16144 10840 1 109.50000 418.400000
6353 16145 8303 1 109.50000 418.400000
6353 16145 8809 1 109.50000 418.400000
6353 16145 10807 1 109.50000 418.400000
8303 16145 8809 1 109.50000 418.400000
8303 16145 10807 1 109.50000 418.400000
8809 16145 10807 1 109.50000 418.400000
3107 16146 8975 1 109.50000 418.400000
3107 16146 10194 1 109.50000 418.400000
3107 16146 10195 1 109.50000 418.400000
8975 16146 10194 1 109.50000 418.400000
8975 16146 10195 1 109.50000 418.400000
10194 16146 10195 1 109.50000 418.400000
2318 16147 3731 1 109.50000 418.400000
2318 16147 9396 1 109.50000 418.400000
2318 16147 10987 1 109.50000 418.400000
3731 16147 9396 1 109.50000 418.400000
3731 16147 10987 1 109.50000 418.400000
9396 16147 10987 1 109.50000 418.400000
5536 16148 9566 1 109.50000 418.400000
5536 16148 10918 1 109.50000 418.400000
5536 16148 11035 1 109.50000 418.400000
9566 16148 10918 1 109.50000 418.400000
9566 16148 11035 1 109.50000 418.400000
10918 16148 11035 1 109.50000 418.400000
8817 16149 9689 1 109.50000 418.400000
8817 16149 9890 1 109.50000 418.400000
8817 16149 10935 1 109.50000 418.400000
9689 16149 9890 1 109.50000 418.400000
9689 16149 10935 1 109.50000 418.400000
9890 16149 10935 1 109.50000 418.400000
7471 16150 8124 1 109.50000 418.400000
7471 16150 9317 1 109.50000 418.400000
7471 16150 10096 1 109.50000 418.400000
8124 16150 9317 1 109.50000 418.400000
8124 16150 10096 1 109.50000 418.400000
9317 16150 10096 1 109.50000 418.400000
4337 16151 11071 1 109.50000 418.400000
4337 16151 11079 1 109.50000 418.400000
4337 16151 11080 1 109.50000 418.400000
11071 16151 11079 1 109.50000 418.400000
11071 16151 11080 1 109.50000 418.400000
11079 16151 11080 1 109.50000 418.400000
2963 16152 5043 1 109.50000 418.400000
2963 16152 8444 1 109.50000 418.400000
2963 16152 11339 1 109.50000 418.400000
5043 16152 8444 1 109.50000 418.400000
5043 16152 11339 1 109.50000 418.400000
8444 16152 11339 1 109.50000 418.400000
5701 16153 7692 1 109.50000 418.400000
5701 16153 9217 1 109.50000 418.400000
5701 16153 9917 1 109.50000 418.400000
7692 16153 9217 1 109.50000 418.400000
7692 16153 9917 1 109.50000 418.400000
9217 16153 9917 1 109.50000 418.400000
2457 16154 2708 1 109.50000 418.400000
2457 16154 4603 1 109.50000 418.400000
2457 16154 11081 1 109.50000 418.400000
2708 16154 4603 1 109.50000 418.400000
2708 16154 11081 1 109.50000 418.400000
4603 16154 11081 1 109.50000 418.400000
2437 16155 3256 1 109.50000 418.400000
2437 16155 9826 1 109.50000 418.400000
2437 16155 10005 1 109.50000 418.400000
3256 16155 9826 1 109.50000 418.400000
3256 16155 10005 1 109.50000 418.400000
9826 16155 10005 1 109.50000 418.400000
5116 16156 9651 1 109.50000 418.400000
5116 16156 9700 1 109.50000 418.400000
5116 16156 11077 1 109.50000 418.400000
9651 16156 9700 1 109.50000 418.400000
9651 16156 11077 1 109.50000 418.400000
9700 16156 11077 1 109.50000 418.400000
4940 16157 4942 1 109.50000 418.400000
4940 16157 8358 1 109.50000 418.400000
4940 16157 10481 1 109.50000 418.400000
4942 16157 8358 1 109.50000 418.400000
4942 16157 10481 1 109.50000 418.400000
8358 16157 10481 1 109.50000 418.400000
4045 16158 5614 1 109.50000 418.400000
4045 16158 10595 1 109.50000 418.400000
4045 16158 11082 1 109.50000 418.400000
5614 16158 10595 1 109.50000 418.400000
5614 16158 11082 1 109.50000 418.400000
10595 16158 11082 1 109.50000 418.400000
5691 16159 7796 1 109.50000 418.400000
5691 16159 9382 1 109.50000 418.400000
5691 16159 11080 1 109.50000 418.400000
7796 16159 9382 1 109.50000 418.400000
7796 16159 11080 1 109.50000 418.400000
9382 16159 11080 1 109.50000 418.400000
5282 16160 5376 1 109.50000 418.400000
5282 16160 8870 1 109.50000 418.400000
5282 16160 10216 1 109.50000 418.400000
5376 16160 8870 1 109.50000 418.400000
5376 16160 10216 1 109.50000 418.400000
8870 16160 10216 1 109.50000 418.400000
812 16161 5064 1 109.50000 418.400000
812 16161 8201 1 109.50000 418.400000
812 16161 10017 1 109.50000 418.400000
5064 16161 8201 1 109.50000 418.400000
5064 16161 10017 1 109.50000 418.400000
8201 16161 10017 1 109.50000 418.400000
3640 16162 9376 1 109.50000 418.400000
3640 16162 10913 1 109.50000 418.400000
3640 16162 10920 1 109.50000 418.400000
9376 16162 10913 1 109.50000 418.400000
9376 16162 10920 1 109.50000 418.400000
10913 16162 10920 1 109.50000 418.400000
1797 16163 5186 1 109.50000 418.400000
1797 16163 6339 1 109.50000 418.400000
1797 16163 10846 1 109.50000 418.400000
5186 16163 6339 1 109.50000 418.400000
5186 16163 10846 1 109.50000 418.400000
6339 16163 10846 1 109.50000 418.400000
1127 16164 7880 1 109.50000 418.400000
1127 16164 9660 1 109.50000 418.400000
1127 16164 11083 1 109.50000 418.400000
7880 16164 9660 1 109.50000 418.400000
7880 16164 11083 1 109.50000 418.400000
9660 16164 11083 1 109.50000 418.400000
731 16165 6766 1 109.50000 418.400000
731 16165 10228 1 109.50000 418.400000
731 16165 10568 1 109.50000 418.400000
6766 16165 10228 1 109.50000 418.400000
6766 16165 10568 1 109.50000 418.400000
10228 16165 10568 1 109.50000 418.400000
235 16166 842 1 109.50000 418.400000
235 16166 9780 1 109.50000 418.400000
235 16166 10691 1 109.50000 418.400000
842 16166 9780 1 109.50000 418.400000
842 16166 10691 1 109.50000 418.400000
9780 16166 10691 1 109.50000 418.400000
1384 16167 4385 1 109.50000 418.400000
1384 16167 5213 1 109.50000 418.400000
1384 16167 6280 1 109.50000 418.400000
4385 16167 5213 1 109.50000 418.400000
4385 16167 6280 1 109.50000 418.400000
5213 16167 6280 1 109.50000 418.400000
4969 16168 8335 1 109.50000 418.400000
4969 16168 9962 1 109.50000 418.400000
4969 16168 10653 1 109.50000 418.400000
8335 16168 9962 1 109.50000 418.400000
8335 16168 10653 1 109.50000 418.400000
9962 16168 10653 1 109.50000 418.400000
6046 16169 6381 1 109.50000 418.400000
6046 16169 9612 1 109.50000 418.400000
6046 16169 10696 1 109.50000 418.400000
6381 16169 9612 1 109.50000 418.400000
6381 16169 10696 1 109.50000 418.400000
9612 16169 10696 1 109.50000 418.400000
1230 16170 8864 1 109.50000 418.400000
1230 16170 11025 1 109.50000 418.400000
1230 16170 11045 1 109.50000 418.400000
8864 16170 11025 1 109.50000 418.400000
8864 16170 11045 1 109.50000 418.400000
11025 16170 11045 1 109.50000 418.400000
1531 16171 2481 1 109.50000 418.400000
1531 16171 8352 1 109.50000 418.400000
1531 16171 9342 1 109.50000 418.400000
2481 16171 8352 1 109.50000 418.400000
2481 16171 9342 1 109.50000 418.400000
8352 16171 9342 1 109.50000 418.400000
6992 16172 7845 1 109.50000 418.400000
6992 16172 8420 1 109.50000 418.400000
6992 16172 11084 1 109.50000 418.400000
7845 16172 8420 1 109.50000 418.400000
7845 16172 11084 1 109.50000 418.400000
8420 16172 11084 1 109.50000 418.400000
3410 16173 8170 1 109.50000 418.400000
3410 16173 8346 1 109.50000 418.400000
3410 16173 9626 1 109.50000 418.400000
8170 16173 8346 1 109.50000 418.400000
8170 16173 9626 1 109.50000 418.400000
8346 16173 9626 1 109.50000 418.400000
7244 16174 7464 1 109.50000 418.400000
7244 16174 8015 1 109.50000 418.400000
7244 16174 11085 1 109.50000 418.400000
7464 16174 8015 1 109.50000 418.400000
7464 16174 11085 1 109.50000 418.400000
8015 16174 11085 1 109.50000 418.400000
8166 16175 8434 1 109.50000 418.400000
8166 16175 8436 1 109.50000 418.400000
8166 16175 9790 1 109.50000 418.400000
8434 16175 8436 1 109.50000 418.400000
8434 16175 9790 1 109.50000 418.400000
8436 16175 9790 1 109.50000 418.400000
368 16176 369 1 109.50000 418.400000
368 16176 370 1 109.50000 418.400000
368 16176 9982 1 109.50000 418.400000
369 16176 370 1 109.50000 418.400000
369 16176 9982 1 109.50000 418.400000
370 16176 9982 1 109.50000 418.400000
1901 16177 5626 1 109.50000 418.400000
1901 16177 9931 1 109.50000 418.400000
1901 16177 10294 1 109.50000 418.400000
5626 16177 9931 1 109.50000 418.400000
5626 16177 10294 1 109.50000 418.400000
9931 16177 10294 1 109.50000 418.400000
4160 16178 4215 1 109.50000 418.400000
4160 16178 10057 1 109.50000 418.400000
4160 16178 11086 1 109.50000 418.400000
4215 16178 10057 1 109.50000 418.400000
4215 16178 11086 1 109.50000 418.400000
10057 16178 11086 1 109.50000 418.400000
1095 16179 4802 1 109.50000 418.400000
1095 16179 10726 1 109.50000 418.400000
1095 16179 10937 1 109.50000 418.400000
4802 16179 10726 1 109.50000 418.400000
4802 16179 10937 1 109.50000 418.400000
10726 16179 10937 1 109.50000 418.400000
6177 16180 8820 1 109.50000 418.400000
6177 16180 10026 1 109.50000 418.400000
6177 16180 11087 1 109.50000 418.400000
8820 16180 10026 1 109.50000 418.400000
8820 16180 11087 1 109.50000 418.400000
10026 16180 11087 1 109.50000 418.400000
5943 16181 7934 1 109.50000 418.400000
5943 16181 9268 1 109.50000 418.400000
5943 16181 9408 1 109.50000 418.400000
7934 16181 9268 1 109.50000 418.400000
7934 16181 9408 1 109.50000 418.400000
9268 16181 9408 1 109.50000 418.400000
2610 16182 4204 1 109.50000 418.400000
2610 16182 6245 1 109.50000 418.400000
2610 16182 9411 1 109.50000 418.400000
4204 16182 6245 1 109.50000 418.400000
4204 16182 9411 1 109.50000 418.400000
6245 16182 9411 1 109.50000 418.400000
3854 16183 5842 1 109.50000 418.400000
3854 16183 10170 1 109.50000 418.400000
3854 16183 10285 1 109.50000 418.400000
5842 16183 10170 1 109.50000 418.400000
5842 16183 10285 1 109.50000 418.400000
10170 16183 10285 1 109.50000 418.400000
4208 16184 8473 1 109.50000 418.400000
4208 16184 9009 1 109.50000 418.400000
4208 16184 10424 1 109.50000 418.400000
8473 16184 9009 1 109.50000 418.400000
8473 16184 10424 1 109.50000 418.400000
9009 16184 10424 1 109.50000 418.400000
7882 16185 10620 1 109.50000 418.400000
7882 16185 10851 1 109.50000 418.400000
7882 16185 11088 1 109.50000 418.400000
10620 16185 10851 1 109.50000 418.400000
10620 16185 11088 1 109.50000 418.400000
10851 16185 11088 1 109.50000 418.400000
3580 16186 7041 1 109.50000 418.400000
3580 16186 9959 1 109.50000 418.400000
3580 16186 10941 1 109.50000 418.400000
7041 16186 9959 1 109.50000 418.400000
7041 16186 10941 1 109.50000 418.400000
9959 16186 10941 1 109.50000 418.400000
9857 16187 10719 1 109.50000 418.400000
9857 16187 11089 1 109.50000 418.400000
9857 16187 11090 1 109.50000 418.400000
10719 16187 11089 1 109.50000 418.400000
10719 16187 11090 1 109.50000 418.400000
11089 16187 11090 1 109.50000 418.400000
1215 16188 3499 1 109.50000 418.400000
1215 16188 9825 1 109.50000 418.400000
1215 16188 11091 1 109.50000 418.400000
3499 16188 9825 1 109.50000 418.400000
3499 16188 11091 1 109.50000 418.400000
9825 16188 11091 1 109.50000 418.400000
1843 16189 5477 1 109.50000 418.400000
1843 16189 10823 1 109.50000 418.400000
1843 16189 11051 1 109.50000 418.400000
5477 16189 10823 1 109.50000 418.400000
5477 16189 11051 1 109.50000 418.400000
10823 16189 11051 1 109.50000 418.400000
2279 16190 3225 1 109.50000 418.400000
2279 16190 6345 1 109.50000 418.400000
2279 16190 9291 1 109.50000 418.400000
3225 16190 6345 1 109.50000 418.400000
3225 16190 9291 1 109.50000 418.400000
6345 16190 9291 1 109.50000 418.400000
4029 16191 7771 1 109.50000 418.400000
4029 16191 8373 1 109.50000 418.400000
4029 16191 10415 1 109.50000 418.400000
7771 16191 8373 1 109.50000 418.400000
7771 16191 10415 1 109.50000 418.400000
8373 16191 10415 1 109.50000 418.400000
735 16192 3185 1 109.50000 418.400000
735 16192 10191 1 109.50000 418.400000
735 16192 10393 1 109.50000 418.400000
3185 16192 10191 1 109.50000 418.400000
3185 16192 10393 1 109.50000 418.400000
10191 16192 10393 1 109.50000 418.400000
4668 16193 6117 1 109.50000 418.400000
4668 16193 9254 1 109.50000 418.400000
4668 16193 10898 1 109.50000 418.400000
6117 16193 9254 1 109.50000 418.400000
6117 16193 10898 1 109.50000 418.400000
9254 16193 10898 1 109.50000 418.400000
466 16194 6821 1 109.50000 418.400000
466 16194 8167 1 109.50000 418.400000
466 16194 11061 1 109.50000 418.400000
6821 16194 8167 1 109.50000 418.400000
6821 16194 11061 1 109.50000 418.400000
8167 16194 11061 1 109.50000 418.400000
1750 16195 10502 1 109.50000 418.400000
1750 16195 10574 1 109.50000 418.400000
1750 16195 10583 1 109.50000 418.400000
10502 16195 10574 1 109.50000 418.400000
10502 16195 10583 1 109.50000 418.400000
10574 16195 10583 1 109.50000 418.400000
2300 16196 7197 1 109.50000 418.400000
2300 16196 8846 1 109.50000 418.400000
2300 16196 11093 1 109.50000 418.400000
7197 16196 8846 1 109.50000 418.400000
7197 16196 11093 1 109.50000 418.400000
8846 16196 11093 1 109.50000 418.400000
412 16197 1026 1 109.50000 418.400000
412 16197 2829 1 109.50000 418.400000
412 16197 5278 1 109.50000 418.400000
1026 16197 2829 1 109.50000 418.400000
1026 16197 5278 1 109.50000 418.400000
2829 16197 5278 1 109.50000 418.400000
3052 16198 7671 1 109.50000 418.400000
3052 16198 7672 1 109.50000 418.400000
3052 16198 10366 1 109.50000 418.400000
7671 16198 7672 1 109.50000 418.400000
7671 16198 10366 1 109.50000 418.400000
7672 16198 10366 1 109.50000 418.400000
2678 16199 4864 1 109.50000 418.400000
2678 16199 8945 1 109.50000 418.400000
2678 16199 10445 1 109.50000 418.400000
4864 16199 8945 1 109.50000 418.400000
4864 16199 10445 1 109.50000 418.400000
8945 16199 10445 1 109.50000 418.400000
1227 16200 1319 1 109.50000 418.400000
1227 16200 3083 1 109.50000 418.400000
1227 16200 3653 1 109.50000 418.400000
1319 16200 3083 1 109.50000 418.400000
1319 16200 3653 1 109.50000 418.400000
3083 16200 3653 1 109.50000 418.400000
928 16201 1014 1 109.50000 418.400000
928 16201 5720 1 109.50000 418.400000
928 16201 10198 1 109.50000 418.400000
1014 16201 5720 1 109.50000 418.400000
1014 16201 10198 1 109.50000 418.400000
5720 16201 10198 1 109.50000 418.400000
6095 16202 8537 1 109.50000 418.400000
6095 16202 8854 1 109.50000 418.400000
6095 16202 9096 1 109.50000 418.400000
8537 16202 8854 1 109.50000 418.400000
8537 16202 9096 1 109.50000 418.400000
8854 16202 9096 1 109.50000 418.400000
4607 16203 6525 1 109.50000 418.400000
4607 16203 8280 1 109.50000 418.400000
4607 16203 9313 1 109.50000 418.400000
6525 16203 8280 1 109.50000 418.400000
6525 16203 9313 1 109.50000 418.400000
8280 16203 9313 1 109.50000 418.400000
6782 16204 7105 1 109.50000 418.400000
6782 16204 9420 1 109.50000 418.400000
6782 16204 10249 1 109.50000 418.400000
7105 16204 9420 1 109.50000 418.400000
7105 16204 10249 1 109.50000 418.400000
9420 16204 10249 1 109.50000 418.400000
5417 16205 7568 1 109.50000 418.400000
5417 16205 9505 1 109.50000 418.400000
5417 16205 10795 1 109.50000 418.400000
7568 16205 9505 1 109.50000 418.400000
7568 16205 10795 1 109.50000 418.400000
9505 16205 10795 1 109.50000 418.400000
9399 16206 10762 1 109.50000 418.400000
9399 16206 10818 1 109.50000 418.400000
9399 16206 10979 1 109.50000 418.400000
10762 16206 10818 1 109.50000 418.400000
10762 16206 10979 1 109.50000 418.400000
10818 16206 10979 1 109.50000 418.400000
3658 16207 5167 1 109.50000 418.400000
3658 16207 6505 1 109.50000 418.400000
3658 16207 8860 1 109.50000 418.400000
5167 16207 6505 1 109.50000 418.400000
5167 16207 8860 1 109.50000 418.400000
6505 16207 8860 1 109.50000 418.400000
1631 16208 1633 1 109.50000 418.400000
1631 16208 2956 1 109.50000 418.400000
1631 16208 11057 1 109.50000 418.400000
1633 16208 2956 1 109.50000 418.400000
1633 16208 11057 1 109.50000 418.400000
2956 16208 11057 1 109.50000 418.400000
2462 16209 8028 1 109.50000 418.400000
2462 16209 8308 1 109.50000 418.400000
2462 16209 10330 1 109.50000 418.400000
8028 16209 8308 1 109.50000 418.400000
8028 16209 10330 1 109.50000 418.400000
8308 16209 10330 1 109.50000 418.400000
2461 16210 8205 1 109.50000 418.400000
2461 16210 10562 1 109.50000 418.400000
2461 16210 11094 1 109.50000 418.400000
8205 16210 10562 1 109.50000 418.400000
8205 16210 11094 1 109.50000 418.400000
10562 16210 11094 1 109.50000 418.400000
1696 16211 2144 1 109.50000 418.400000
1696 16211 9002 1 109.50000 418.400000
1696 16211 9181 1 109.50000 418.400000
2144 16211 9002 1 109.50000 418.400000
2144 16211 9181 1 109.50000 418.400000
9002 16211 9181 1 109.50000 418.400000
3784 16212 7442 1 109.50000 418.400000
3784 16212 10533 1 109.50000 418.400000
3784 16212 10572 1 109.50000 418.400000
7442 16212 10533 1 109.50000 418.400000
7442 16212 10572 1 109.50000 418.400000
10533 16212 10572 1 109.50000 418.400000
4404 16213 5045 1 109.50000 418.400000
4404 16213 6021 1 109.50000 418.400000
4404 16213 10646 1 109.50000 418.400000
5045 16213 6021 1 109.50000 418.400000
5045 16213 10646 1 109.50000 418.400000
6021 16213 10646 1 109.50000 418.400000
6801 16214 7522 1 109.50000 418.400000
6801 16214 8845 1 109.50000 418.400000
6801 16214 10901 1 109.50000 418.400000
7522 16214 8845 1 109.50000 418.400000
7522 16214 10901 1 109.50000 418.400000
8845 16214 10901 1 109.50000 418.400000
544 16215 9461 1 109.50000 418.400000
544 16215 10877 1 109.50000 418.400000
544 16215 11002 1 109.50000 418.400000
9461 16215 10877 1 109.50000 418.400000
9461 16215 11002 1 109.50000 418.400000
10877 16215 11002 1 109.50000 418.400000
1190 16216 9058 1 109.50000 418.400000
1190 16216 10589 1 109.50000 418.400000
1190 16216 10983 1 109.50000 418.400000
9058 16216 10589 1 109.50000 418.400000
9058 16216 10983 1 109.50000 418.400000
10589 16216 10983 1 109.50000 418.400000
6182 16217 6886 1 109.50000 418.400000
6182 16217 10288 1 109.50000 418.400000
6182 16217 10791 1 109.50000 418.400000
6886 16217 10288 1 109.50000 418.400000
6886 16217 10791 1 109.50000 418.400000
10288 16217 10791 1 109.50000 418.400000
7229 16218 7784 1 109.50000 418.400000
7229 16218 9589 1 109.50000 418.400000
7229 16218 11095 1 109.50000 418.400000
7784 16218 9589 1 109.50000 418.400000
7784 16218 11095 1 109.50000 418.400000
9589 16218 11095 1 109.50000 418.400000
2384 16219 9588 1 109.50000 418.400000
2384 16219 10580 1 109.50000 418.400000
2384 16219 11086 1 109.50000 418.400000
9588 16219 10580 1 109.50000 418.400000
9588 16219 11086 1 109.50000 418.400000
10580 16219 11086 1 109.50000 418.400000
2104 16220 5823 1 109.50000 418.400000
2104 16220 8139 1 109.50000 418.400000
2104 16220 9831 1 109.50000 418.400000
5823 16220 8139 1 109.50000 418.400000
5823 16220 9831 1 109.50000 418.400000
8139 16220 9831 1 109.50000 418.400000
2157 16221 2435 1 109.50000 418.400000
2157 16221 3800 1 109.50000 418.400000
2157 16221 5721 1 109.50000 418.400000
2435 16221 3800 1 109.50000 418.400000
2435 16221 5721 1 109.50000 418.400000
3800 16221 5721 1 109.50000 418.400000
2868 16222 4881 1 109.50000 418.400000
2868 16222 5560 1 109.50000 418.400000
2868 16222 7631 1 109.50000 418.400000
4881 16222 5560 1 109.50000 418.400000
4881 16222 7631 1 109.50000 418.400000
5560 16222 7631 1 109.50000 418.400000
1355 16223 7690 1 109.50000 418.400000
1355 16223 8314 1 109.50000 418.400000
1355 16223 11096 1 109.50000 418.400000
7690 16223 8314 1 109.50000 418.400000
7690 16223 11096 1 109.50000 418.400000
8314 16223 11096 1 109.50000 418.400000
1165 16224 3860 1 109.50000 418.400000
1165 16224 9135 1 109.50000 418.400000
1165 16224 10637 1 109.50000 418.400000
3860 16224 9135 1 109.50000 418.400000
3860 16224 10637 1 109.50000 418.400000
9135 16224 10637 1 109.50000 418.400000
8311 16225 9474 1 109.50000 418.400000
8311 16225 10990 1 109.50000 418.400000
8311 16225 11011 1 109.50000 418.400000
9474 16225 10990 1 109.50000 418.400000
9474 16225 11011 1 109.50000 418.400000
10990 16225 11011 1 109.50000 418.400000
6748 16226 6775 1 109.50000 418.400000
6748 16226 8432 1 109.50000 418.400000
6748 16226 9231 1 109.50000 418.400000
6775 16226 8432 1 109.50000 418.400000
6775 16226 9231 1 109.50000 418.400000
8432 16226 9231 1 109.50000 418.400000
590 16227 3761 1 109.50000 418.400000
590 16227 8966 1 109.50000 418.400000
590 16227 10235 1 109.50000 418.400000
3761 16227 8966 1 109.50000 418.400000
3761 16227 10235 1 109.50000 418.400000
8966 16227 10235 1 109.50000 418.400000
72 16228 5126 1 109.50000 418.400000
72 16228 8720 1 109.50000 418.400000
72 16228 11034 1 109.50000 418.400000
5126 16228 8720 1 109.50000 418.400000
5126 16228 11034 1 109.50000 418.400000
8720 16228 11034 1 109.50000 418.400000
3362 16229 6823 1 109.50000 418.400000
3362 16229 8429 1 109.50000 418.400000
3362 16229 8431 1 109.50000 418.400000
6823 16229 8429 1 109.50000 418.400000
6823 16229 8431 1 109.50000 418.400000
8429 16229 8431 1 109.50000 418.400000
3576 16230 4257 1 109.50000 418.400000
3576 16230 6043 1 109.50000 418.400000
3576 16230 10845 1 109.50000 418.400000
4257 16230 6043 1 109.50000 418.400000
4257 16230 10845 1 109.50000 418.400000
6043 16230 10845 1 109.50000 418.400000
2155 16231 7531 1 109.50000 418.400000
2155 16231 7592 1 109.50000 418.400000
2155 16231 10615 1 109.50000 418.400000
7531 16231 7592 1 109.50000 418.400000
7531 16231 10615 1 109.50000 418.400000
7592 16231 10615 1 109.50000 418.400000
4682 16232 6393 1 109.50000 418.400000
4682 16232 6866 1 109.50000 418.400000
4682 16232 10754 1 109.50000 418.400000
6393 16232 6866 1 109.50000 418.400000
6393 16232 10754 1 109.50000 418.400000
6866 16232 10754 1 109.50000 418.400000
4718 16233 6260 1 109.50000 418.400000
4718 16233 6805 1 109.50000 418.400000
4718 16233 10922 1 109.50000 418.400000
6260 16233 6805 1 109.50000 418.400000
6260 16233 10922 1 109.50000 418.400000
6805 16233 10922 1 109.50000 418.400000
1442 16234 8676 1 109.50000 418.400000
1442 16234 10967 1 109.50000 418.400000
1442 16234 10997 1 109.50000 418.400000
8676 16234 10967 1 109.50000 418.400000
8676 16234 10997 1 109.50000 418.400000
10967 16234 10997 1 109.50000 418.400000
3066 16235 5551 1 109.50000 418.400000
3066 16235 8013 1 109.50000 418.400000
3066 16235 9808 1 109.50000 418.400000
5551 16235 8013 1 109.50000 418.400000
5551 16235 9808 1 109.50000 418.400000
8013 16235 9808 1 109.50000 418.400000
7338 16236 8532 1 109.50000 418.400000
7338 16236 9895 1 109.50000 418.400000
7338 16236 11098 1 109.50000 418.400000
8532 16236 9895 1 109.50000 418.400000
8532 16236 11098 1 109.50000 418.400000
9895 16236 11098 1 109.50000 418.400000
525 16237 969 1 109.50000 418.400000
525 16237 5525 1 109.50000 418.400000
525 16237 6559 1 109.50000 418.400000
969 16237 5525 1 109.50000 418.400000
969 16237 6559 1 109.50000 418.400000
5525 16237 6559 1 109.50000 418.400000
5012 16238 5013 1 109.50000 418.400000
5012 16238 7621 1 109.50000 418.400000
5012 16238 7828 1 109.50000 418.400000
5013 16238 7621 1 109.50000 418.400000
5013 16238 7828 1 109.50000 418.400000
7621 16238 7828 1 109.50000 418.400000
7192 16239 8326 1 109.50000 418.400000
7192 16239 10650 1 109.50000 418.400000
7192 16239 10716 1 109.50000 418.400000
8326 16239 10650 1 109.50000 418.400000
8326 16239 10716 1 109.50000 418.400000
10650 16239 10716 1 109.50000 418.400000
2950 16240 5643 1 109.50000 418.400000
2950 16240 10980 1 109.50000 418.400000
2950 16240 10981 1 109.50000 418.400000
5643 16240 10980 1 109.50000 418.400000
5643 16240 10981 1 109.50000 418.400000
10980 16240 10981 1 109.50000 418.400000
2694 16241 7097 1 109.50000 418.400000
2694 16241 9966 1 109.50000 418.400000
2694 16241 11041 1 109.50000 418.400000
7097 16241 9966 1 109.50000 418.400000
7097 16241 11041 1 109.50000 418.400000
9966 16241 11041 1 109.50000 418.400000
978 16242 2313 1 109.50000 418.400000
978 16242 4530 1 109.50000 418.400000
978 16242 11319 1 109.50000 418.400000
2313 16242 4530 1 109.50000 418.400000
2313 16242 11319 1 109.50000 418.400000
4530 16242 11319 1 109.50000 418.400000
862 16243 1274 1 109.50000 418.400000
862 16243 1914 1 109.50000 418.400000
862 16243 10577 1 109.50000 418.400000
1274 16243 1914 1 109.50000 418.400000
1274 16243 10577 1 109.50000 418.400000
1914 16243 10577 1 109.50000 418.400000
1780 16244 3555 1 109.50000 418.400000
1780 16244 8772 1 109.50000 418.400000
1780 16244 8940 1 109.50000 418.400000
3555 16244 8772 1 109.50000 418.400000
3555 16244 8940 1 109.50000 418.400000
8772 16244 8940 1 109.50000 418.400000
1348 16245 1459 1 109.50000 418.400000
1348 16245 4992 1 109.50000 418.400000
1348 16245 8734 1 109.50000 418.400000
1459 16245 4992 1 109.50000 418.400000
1459 16245 8734 1 109.50000 418.400000
4992 16245 8734 1 109.50000 418.400000
4911 16246 4948 1 109.50000 418.400000
4911 16246 6213 1 109.50000 418.400000
4911 16246 7216 1 109.50000 418.400000
4948 16246 6213 1 109.50000 418.400000
4948 16246 7216 1 109.50000 418.400000
6213 16246 7216 1 109.50000 418.400000
3353 16247 10075 1 109.50000 418.400000
3353 16247 10974 1 109.50000 418.400000
3353 16247 11248 1 109.50000 418.400000
10075 16247 10974 1 109.50000 418.400000
10075 16247 11248 1 109.50000 418.400000
10974 16247 11248 1 109.50000 418.400000
1562 16248 7902 1 109.50000 418.400000
1562 16248 8187 1 109.50000 418.400000
1562 16248 11099 1 109.50000 418.400000
7902 16248 8187 1 109.50000 418.400000
7902 16248 11099 1 109.50000 418.400000
8187 16248 11099 1 109.50000 418.400000
212 16249 1875 1 109.50000 418.400000
212 16249 10098 1 109.50000 418.400000
212 16249 11100 1 109.50000 418.400000
1875 16249 10098 1 109.50000 418.400000
1875 16249 11100 1 109.50000 418.400000
10098 16249 11100 1 109.50000 418.400000
481 16250 7280 1 109.50000 418.400000
481 16250 9238 1 109.50000 418.400000
481 16250 10557 1 109.50000 418.400000
7280 16250 9238 1 109.50000 418.400000
7280 16250 10557 1 109.50000 418.400000
9238 16250 10557 1 109.50000 418.400000
3413 16251 7957 1 109.50000 418.400000
3413 16251 11101 1 109.50000 418.400000
3413 16251 11102 1 109.50000 418.400000
7957 16251 11101 1 109.50000 418.400000
7957 16251 11102 1 109.50000 418.400000
11101 16251 11102 1 109.50000 418.400000
355 16252 3513 1 109.50000 418.400000
355 16252 3829 1 109.50000 418.400000
355 16252 11103 1 109.50000 418.400000
3513 16252 3829 1 109.50000 418.400000
3513 16252 11103 1 109.50000 418.400000
3829 16252 11103 1 109.50000 418.400000
7951 16253 8929 1 109.50000 418.400000
7951 16253 11074 1 109.50000 418.400000
7951 16253 11104 1 109.50000 418.400000
8929 16253 11074 1 109.50000 418.400000
8929 16253 11104 1 109.50000 418.400000
11074 16253 11104 1 109.50000 418.400000
2193 16254 4831 1 109.50000 418.400000
2193 16254 8666 1 109.50000 418.400000
2193 16254 8826 1 109.50000 418.400000
4831 16254 8666 1 109.50000 418.400000
4831 16254 8826 1 109.50000 418.400000
8666 16254 8826 1 109.50000 418.400000
1928 16255 6167 1 109.50000 418.400000
1928 16255 7245 1 109.50000 418.400000
1928 16255 11105 1 109.50000 418.400000
6167 16255 7245 1 109.50000 418.400000
6167 16255 11105 1 109.50000 418.400000
7245 16255 11105 1 109.50000 418.400000
790 16256 8671 1 109.50000 418.400000
790 16256 8984 1 109.50000 418.400000
790 16256 11106 1 109.50000 418.400000
8671 16256 8984 1 109.50000 418.400000
8671 16256 11106 1 109.50000 418.400000
8984 16256 11106 1 109.50000 418.400000
3587 16257 4365 1 109.50000 418.400000
3587 16257 6308 1 109.50000 418.400000
3587 16257 7463 1 109.50000 418.400000
4365 16257 6308 1 109.50000 418.400000
4365 16257 7463 1 109.50000 418.400000
6308 16257 7463 1 109.50000 418.400000
197 16258 9584 1 109.50000 418.400000
197 16258 10623 1 109.50000 418.400000
197 16258 11107 1 109.50000 418.400000
9584 16258 10623 1 109.50000 418.400000
9584 16258 11107 1 109.50000 418.400000
10623 16258 11107 1 109.50000 418.400000
2271 16259 6811 1 109.50000 418.400000
2271 16259 10117 1 109.50000 418.400000
2271 16259 10628 1 109.50000 418.400000
6811 16259 10117 1 109.50000 418.400000
6811 16259 10628 1 109.50000 418.400000
10117 16259 10628 1 109.50000 418.400000
5057 16260 6019 1 109.50000 418.400000
5057 16260 6189 1 109.50000 418.400000
5057 16260 8900 1 109.50000 418.400000
6019 16260 6189 1 109.50000 418.400000
6019 16260 8900 1 109.50000 418.400000
6189 16260 8900 1 109.50000 418.400000
5059 16261 8895 1 109.50000 418.400000
5059 16261 10077 1 109.50000 418.400000
5059 16261 11073 1 109.50000 418.400000
8895 16261 10077 1 109.50000 418.400000
8895 16261 11073 1 109.50000 418.400000
10077 16261 11073 1 109.50000 418.400000
223 16262 6437 1 109.50000 418.400000
223 16262 9978 1 109.50000 418.400000
223 16262 10023 1 109.50000 418.400000
6437 16262 9978 1 109.50000 418.400000
6437 16262 10023 1 109.50000 418.400000
9978 16262 10023 1 109.50000 418.400000
8867 16263 10043 1 109.50000 418.400000
8867 16263 10954 1 109.50000 418.400000
8867 16263 11224 1 109.50000 418.400000
10043 16263 10954 1 109.50000 418.400000
10043 16263 11224 1 109.50000 418.400000
10954 16263 11224 1 109.50000 418.400000
4125 16264 10512 1 109.50000 418.400000
4125 16264 10992 1 109.50000 418.400000
4125 16264 11083 1 109.50000 418.400000
10512 16264 10992 1 109.50000 418.400000
10512 16264 11083 1 109.50000 418.400000
10992 16264 11083 1 109.50000 418.400000
4021 16265 6994 1 109.50000 418.400000
4021 16265 8603 1 109.50000 418.400000
4021 16265 11108 1 109.50000 418.400000
6994 16265 8603 1 109.50000 418.400000
6994 16265 11108 1 109.50000 418.400000
8603 16265 11108 1 109.50000 418.400000
4027 16266 4145 1 109.50000 418.400000
4027 16266 10684 1 109.50000 418.400000
4027 16266 11107 1 109.50000 418.400000
4145 16266 10684 1 109.50000 418.400000
4145 16266 11107 1 109.50000 418.400000
10684 16266 11107 1 109.50000 418.400000
934 16267 1361 1 109.50000 418.400000
934 16267 8687 1 109.50000 418.400000
934 16267 9354 1 109.50000 418.400000
1361 16267 8687 1 109.50000 418.400000
1361 16267 9354 1 109.50000 418.400000
8687 16267 9354 1 109.50000 418.400000
1446 16268 8380 1 109.50000 418.400000
1446 16268 11021 1 109.50000 418.400000
1446 16268 11098 1 109.50000 418.400000
8380 16268 11021 1 109.50000 418.400000
8380 16268 11098 1 109.50000 418.400000
11021 16268 11098 1 109.50000 418.400000
1920 16269 8426 1 109.50000 418.400000
1920 16269 8427 1 109.50000 418.400000
1920 16269 8428 1 109.50000 418.400000
8426 16269 8427 1 109.50000 418.400000
8426 16269 8428 1 109.50000 418.400000
8427 16269 8428 1 109.50000 418.400000
2710 16270 4978 1 109.50000 418.400000
2710 16270 6332 1 109.50000 418.400000
2710 16270 11104 1 109.50000 418.400000
4978 16270 6332 1 109.50000 418.400000
4978 16270 11104 1 109.50000 418.400000
6332 16270 11104 1 109.50000 418.400000
459 16271 817 1 109.50000 418.400000
459 16271 8365 1 109.50000 418.400000
459 16271 10833 1 109.50000 418.400000
817 16271 8365 1 109.50000 418.400000
817 16271 10833 1 109.50000 418.400000
8365 16271 10833 1 109.50000 418.400000
1415 16272 7911 1 109.50000 418.400000
1415 16272 10264 1 109.50000 418.400000
1415 16272 11109 1 109.50000 418.400000
7911 16272 10264 1 109.50000 418.400000
7911 16272 11109 1 109.50000 418.400000
10264 16272 11109 1 109.50000 418.400000
9100 16273 9146 1 109.50000 418.400000
9100 16273 9960 1 109.50000 418.400000
9100 16273 11046 1 109.50000 418.400000
9146 16273 9960 1 109.50000 418.400000
9146 16273 11046 1 109.50000 418.400000
9960 16273 11046 1 109.50000 418.400000
5919 16274 9644 1 109.50000 418.400000
5919 16274 11042 1 109.50000 418.400000
5919 16274 11110 1 109.50000 418.400000
9644 16274 11042 1 109.50000 418.400000
9644 16274 11110 1 109.50000 418.400000
11042 16274 11110 1 109.50000 418.400000
2194 16275 2195 1 109.50000 418.400000
2194 16275 7368 1 109.50000 418.400000
2194 16275 10609 1 109.50000 418.400000
2195 16275 7368 1 109.50000 418.400000
2195 16275 10609 1 109.50000 418.400000
7368 16275 10609 1 109.50000 418.400000
5995 16276 8663 1 109.50000 418.400000
5995 16276 10394 1 109.50000 418.400000
5995 16276 10892 1 109.50000 418.400000
8663 16276 10394 1 109.50000 418.400000
8663 16276 10892 1 109.50000 418.400000
10394 16276 10892 1 109.50000 418.400000
6575 16277 8460 1 109.50000 418.400000
6575 16277 8461 1 109.50000 418.400000
6575 16277 10172 1 109.50000 418.400000
8460 16277 8461 1 109.50000 418.400000
8460 16277 10172 1 109.50000 418.400000
8461 16277 10172 1 109.50000 418.400000
4195 16278 4251 1 109.50000 418.400000
4195 16278 5222 1 109.50000 418.400000
4195 16278 10910 1 109.50000 418.400000
4251 16278 5222 1 109.50000 418.400000
4251 16278 10910 1 109.50000 418.400000
5222 16278 10910 1 109.50000 418.400000
1113 16279 1114 1 109.50000 418.400000
1113 16279 1314 1 109.50000 418.400000
1113 16279 6693 1 109.50000 418.400000
1114 16279 1314 1 109.50000 418.400000
1114 16279 6693 1 109.50000 418.400000
1314 16279 6693 1 109.50000 418.400000
2557 16280 2928 1 109.50000 418.400000
2557 16280 6921 1 109.50000 418.400000
2557 16280 10942 1 109.50000 418.400000
2928 16280 6921 1 109.50000 418.400000
2928 16280 10942 1 109.50000 418.400000
6921 16280 10942 1 109.50000 418.400000
10707 16281 10844 1 109.50000 418.400000
10707 16281 11027 1 109.50000 418.400000
10707 16281 11111 1 109.50000 418.400000
10844 16281 11027 1 109.50000 418.400000
10844 16281 11111 1 109.50000 418.400000
11027 16281 11111 1 109.50000 418.400000
4916 16282 7700 1 109.50000 418.400000
4916 16282 9309 1 109.50000 418.400000
4916 16282 11103 1 109.50000 418.400000
7700 16282 9309 1 109.50000 418.400000
7700 16282 11103 1 109.50000 418.400000
9309 16282 11103 1 109.50000 418.400000
3110 16283 7832 1 109.50000 418.400000
3110 16283 8559 1 109.50000 418.400000
3110 16283 10610 1 109.50000 418.400000
7832 16283 8559 1 109.50000 418.400000
7832 16283 10610 1 109.50000 418.400000
8559 16283 10610 1 109.50000 418.400000
3162 16284 5481 1 109.50000 418.400000
3162 16284 6512 1 109.50000 418.400000
3162 16284 7360 1 109.50000 418.400000
5481 16284 6512 1 109.50000 418.400000
5481 16284 7360 1 109.50000 418.400000
6512 16284 7360 1 109.50000 418.400000
227 16285 4639 1 109.50000 418.400000
227 16285 4910 1 109.50000 418.400000
227 16285 11001 1 109.50000 418.400000
4639 16285 4910 1 109.50000 418.400000
4639 16285 11001 1 109.50000 418.400000
4910 16285 11001 1 109.50000 418.400000
10542 16286 10706 1 109.50000 418.400000
10542 16286 11067 1 109.50000 418.400000
10542 16286 11112 1 109.50000 418.400000
10706 16286 11067 1 109.50000 418.400000
10706 16286 11112 1 109.50000 418.400000
11067 16286 11112 1 109.50000 418.400000
3676 16287 10932 1 109.50000 418.400000
3676 16287 11092 1 109.50000 418.400000
3676 16287 11113 1 109.50000 418.400000
10932 16287 11092 1 109.50000 418.400000
10932 16287 11113 1 109.50000 418.400000
11092 16287 11113 1 109.50000 418.400000
7583 16288 9243 1 109.50000 418.400000
7583 16288 10525 1 109.50000 418.400000
7583 16288 11114 1 109.50000 418.400000
9243 16288 10525 1 109.50000 418.400000
9243 16288 11114 1 109.50000 418.400000
10525 16288 11114 1 109.50000 418.400000
6776 16289 7030 1 109.50000 418.400000
6776 16289 10284 1 109.50000 418.400000
6776 16289 11030 1 109.50000 418.400000
7030 16289 10284 1 109.50000 418.400000
7030 16289 11030 1 109.50000 418.400000
10284 16289 11030 1 109.50000 418.400000
3557 16290 4786 1 109.50000 418.400000
3557 16290 5423 1 109.50000 418.400000
3557 16290 5869 1 109.50000 418.400000
4786 16290 5423 1 109.50000 418.400000
4786 16290 5869 1 109.50000 418.400000
5423 16290 5869 1 109.50000 418.400000
4531 16291 6578 1 109.50000 418.400000
4531 16291 7072 1 109.50000 418.400000
4531 16291 11106 1 109.50000 418.400000
6578 16291 7072 1 109.50000 418.400000
6578 16291 11106 1 109.50000 418.400000
7072 16291 11106 1 109.50000 418.400000
863 16292 2511 1 109.50000 418.400000
863 16292 9891 1 109.50000 418.400000
863 16292 11060 1 109.50000 418.400000
2511 16292 9891 1 109.50000 418.400000
2511 16292 11060 1 109.50000 418.400000
9891 16292 11060 1 109.50000 418.400000
527 16293 9008 1 109.50000 418.400000
527 16293 10986 1 109.50000 418.400000
527 16293 11026 1 109.50000 418.400000
9008 16293 10986 1 109.50000 418.400000
9008 16293 11026 1 109.50000 418.400000
10986 16293 11026 1 109.50000 418.400000
2520 16294 8218 1 109.50000 418.400000
2520 16294 8931 1 109.50000 418.400000
2520 16294 9387 1 109.50000 418.400000
8218 16294 8931 1 109.50000 418.400000
8218 16294 9387 1 109.50000 418.400000
8931 16294 9387 1 109.50000 418.400000
5324 16295 7154 1 109.50000 418.400000
5324 16295 8979 1 109.50000 418.400000
5324 16295 10556 1 109.50000 418.400000
7154 16295 8979 1 109.50000 418.400000
7154 16295 10556 1 109.50000 418.400000
8979 16295 10556 1 109.50000 418.400000
5819 16296 8576 1 109.50000 418.400000
5819 16296 10065 1 109.50000 418.400000
5819 16296 11115 1 109.50000 418.400000
8576 16296 10065 1 109.50000 418.400000
8576 16296 11115 1 109.50000 418.400000
10065 16296 11115 1 109.50000 418.400000
1818 16297 2863 1 109.50000 418.400000
1818 16297 3073 1 109.50000 418.400000
1818 16297 10891 1 109.50000 418.400000
2863 16297 3073 1 109.50000 418.400000
2863 16297 10891 1 109.50000 418.400000
3073 16297 10891 1 109.50000 418.400000
5332 16298 9586 1 109.50000 418.400000
5332 16298 10788 1 109.50000 418.400000
5332 16298 11063 1 109.50000 418.400000
9586 16298 10788 1 109.50000 418.400000
9586 16298 11063 1 109.50000 418.400000
10788 16298 11063 1 109.50000 418.400000
997 16299 4485 1 109.50000 418.400000
997 16299 8556 1 109.50000 418.400000
997 16299 10225 1 109.50000 418.400000
4485 16299 8556 1 109.50000 418.400000
4485 16299 10225 1 109.50000 418.400000
8556 16299 10225 1 109.50000 418.400000
2711 16300 4976 1 109.50000 418.400000
2711 16300 9912 1 109.50000 418.400000
2711 16300 11117 1 109.50000 418.400000
4976 16300 9912 1 109.50000 418.400000
4976 16300 11117 1 109.50000 418.400000
9912 16300 11117 1 109.50000 418.400000
572 16301 1188 1 109.50000 418.400000
572 16301 8563 1 109.50000 418.400000
572 16301 10972 1 109.50000 418.400000
1188 16301 8563 1 109.50000 418.400000
1188 16301 10972 1 109.50000 418.400000
8563 16301 10972 1 109.50000 418.400000
680 16302 1538 1 109.50000 418.400000
680 16302 6543 1 109.50000 418.400000
680 16302 8073 1 109.50000 418.400000
1538 16302 6543 1 109.50000 418.400000
1538 16302 8073 1 109.50000 418.400000
6543 16302 8073 1 109.50000 418.400000
1651 16303 8398 1 109.50000 418.400000
1651 16303 8564 1 109.50000 418.400000
1651 16303 11069 1 109.50000 418.400000
8398 16303 8564 1 109.50000 418.400000
8398 16303 11069 1 109.50000 418.400000
8564 16303 11069 1 109.50000 418.400000
4549 16304 6861 1 109.50000 418.400000
4549 16304 8819 1 109.50000 418.400000
4549 16304 11093 1 109.50000 418.400000
6861 16304 8819 1 109.50000 418.400000
6861 16304 11093 1 109.50000 418.400000
8819 16304 11093 1 109.50000 418.400000
3694 16305 4683 1 109.50000 418.400000
3694 16305 8517 1 109.50000 418.400000
3694 16305 11118 1 109.50000 418.400000
4683 16305 8517 1 109.50000 418.400000
4683 16305 11118 1 109.50000 418.400000
8517 16305 11118 1 109.50000 418.400000
2150 16306 3626 1 109.50000 418.400000
2150 16306 11110 1 109.50000 418.400000
2150 16306 11240 1 109.50000 418.400000
3626 16306 11110 1 109.50000 418.400000
3626 16306 11240 1 109.50000 418.400000
11110 16306 11240 1 109.50000 418.400000
8240 16307 8242 1 109.50000 418.400000
8240 16307 9782 1 109.50000 418.400000
8240 16307 10044 1 109.50000 418.400000
8242 16307 9782 1 109.50000 418.400000
8242 16307 10044 1 109.50000 418.400000
9782 16307 10044 1 109.50000 418.400000
1108 16308 2925 1 109.50000 418.400000
1108 16308 6072 1 109.50000 418.400000
1108 16308 6322 1 109.50000 418.400000
2925 16308 6072 1 109.50000 418.400000
2925 16308 6322 1 109.50000 418.400000
6072 16308 6322 1 109.50000 418.400000
2951 16309 2952 1 109.50000 418.400000
2951 16309 2953 1 109.50000 418.400000
2951 16309 2954 1 109.50000 418.400000
2952 16309 2953 1 109.50000 418.400000
2952 16309 2954 1 109.50000 418.400000
2953 16309 2954 1 109.50000 418.400000
8605 16310 8693 1 109.50000 418.400000
8605 16310 9171 1 109.50000 418.400000
8605 16310 11119 1 109.50000 418.400000
8693 16310 9171 1 109.50000 418.400000
8693 16310 11119 1 109.50000 418.400000
9171 16310 11119 1 109.50000 418.400000
5103 16311 10078 1 109.50000 418.400000
5103 16311 11102 1 109.50000 418.400000
5103 16311 11120 1 109.50000 418.400000
10078 16311 11102 1 109.50000 418.400000
10078 16311 11120 1 109.50000 418.400000
11102 16311 11120 1 109.50000 418.400000
1726 16312 2981 1 109.50000 418.400000
1726 16312 7778 1 109.50000 418.400000
1726 16312 10651 1 109.50000 418.400000
2981 16312 7778 1 109.50000 418.400000
2981 16312 10651 1 109.50000 418.400000
7778 16312 10651 1 109.50000 418.400000
5500 16313 7929 1 109.50000 418.400000
5500 16313 9783 1 109.50000 418.400000
5500 16313 10914 1 109.50000 418.400000
7929 16313 9783 1 109.50000 418.400000
7929 16313 10914 1 109.50000 418.400000
9783 16313 10914 1 109.50000 418.400000
29 16314 782 1 109.50000 418.400000
29 16314 11070 1 109.50000 418.400000
29 16314 11121 1 109.50000 418.400000
782 16314 11070 1 109.50000 418.400000
782 16314 11121 1 109.50000 418.400000
11070 16314 11121 1 109.50000 418.400000
3027 16315 6288 1 109.50000 418.400000
3027 16315 9017 1 109.50000 418.400000
3027 16315 10363 1 109.50000 418.400000
6288 16315 9017 1 109.50000 418.400000
6288 16315 10363 1 109.50000 418.400000
9017 16315 10363 1 109.50000 418.400000
5839 16316 5840 1 109.50000 418.400000
5839 16316 5841 1 109.50000 418.400000
5839 16316 5842 1 109.50000 418.400000
5840 16316 5841 1 109.50000 418.400000
5840 16316 5842 1 109.50000 418.400000
5841 16316 5842 1 109.50000 418.400000
7782 16317 10299 1 109.50000 418.400000
7782 16317 10420 1 109.50000 418.400000
7782 16317 10872 1 109.50000 418.400000
10299 16317 10420 1 109.50000 418.400000
10299 16317 10872 1 109.50000 418.400000
10420 16317 10872 1 109.50000 418.400000
989 16318 3441 1 109.50000 418.400000
989 16318 4555 1 109.50000 418.400000
989 16318 11005 1 109.50000 418.400000
3441 16318 4555 1 109.50000 418.400000
3441 16318 11005 1 109.50000 418.400000
4555 16318 11005 1 109.50000 418.400000
4452 16319 8927 1 109.50000 418.400000
4452 16319 10776 1 109.50000 418.400000
4452 16319 11140 1 109.50000 418.400000
8927 16319 10776 1 109.50000 418.400000
8927 16319 11140 1 109.50000 418.400000
10776 16319 11140 1 109.50000 418.400000
1706 16320 2034 1 109.50000 418.400000
1706 16320 3366 1 109.50000 418.400000
1706 16320 8133 1 109.50000 418.400000
2034 16320 3366 1 109.50000 418.400000
2034 16320 8133 1 109.50000 418.400000
3366 16320 8133 1 109.50000 418.400000
3198 16321 8534 1 109.50000 418.400000
3198 16321 9524 1 109.50000 418.400000
3198 16321 9845 1 109.50000 418.400000
8534 16321 9524 1 109.50000 418.400000
8534 16321 9845 1 109.50000 418.400000
9524 16321 9845 1 109.50000 418.400000
1146 16322 2648 1 109.50000 418.400000
1146 16322 2649 1 109.50000 418.400000
1146 16322 5400 1 109.50000 418.400000
2648 16322 2649 1 109.50000 418.400000
2648 16322 5400 1 109.50000 418.400000
2649 16322 5400 1 109.50000 418.400000
825 16323 826 1 109.50000 418.400000
825 16323 8046 1 109.50000 418.400000
825 16323 8595 1 109.50000 418.400000
826 16323 8046 1 109.50000 418.400000
826 16323 8595 1 109.50000 418.400000
8046 16323 8595 1 109.50000 418.400000
3697 16324 5445 1 109.50000 418.400000
3697 16324 5931 1 109.50000 418.400000
3697 16324 9762 1 109.50000 418.400000
5445 16324 5931 1 109.50000 418.400000
5445 16324 9762 1 109.50000 418.400000
5931 16324 9762 1 109.50000 418.400000
6290 16325 6374 1 109.50000 418.400000
6290 16325 7955 1 109.50000 418.400000
6290 16325 8488 1 109.50000 418.400000
6374 16325 7955 1 109.50000 418.400000
6374 16325 8488 1 109.50000 418.400000
7955 16325 8488 1 109.50000 418.400000
6268 16326 8904 1 109.50000 418.400000
6268 16326 10127 1 109.50000 418.400000
6268 16326 11109 1 109.50000 418.400000
8904 16326 10127 1 109.50000 418.400000
8904 16326 11109 1 109.50000 418.400000
10127 16326 11109 1 109.50000 418.400000
1596 16327 3116 1 109.50000 418.400000
1596 16327 7715 1 109.50000 418.400000
1596 16327 8738 1 109.50000 418.400000
3116 16327 7715 1 109.50000 418.400000
3116 16327 8738 1 109.50000 418.400000
7715 16327 8738 1 109.50000 418.400000
419 16328 1168 1 109.50000 418.400000
419 16328 4116 1 109.50000 418.400000
419 16328 9673 1 109.50000 418.400000
1168 16328 4116 1 109.50000 418.400000
1168 16328 9673 1 109.50000 418.400000
4116 16328 9673 1 109.50000 418.400000
5496 16329 7539 1 109.50000 418.400000
5496 16329 9565 1 109.50000 418.400000
5496 16329 11013 1 109.50000 418.400000
7539 16329 9565 1 109.50000 418.400000
7539 16329 11013 1 109.50000 418.400000
9565 16329 11013 1 109.50000 418.400000
920 16330 8578 1 109.50000 418.400000
920 16330 11055 1 109.50000 418.400000
920 16330 11122 1 109.50000 418.400000
8578 16330 11055 1 109.50000 418.400000
8578 16330 11122 1 109.50000 418.400000
11055 16330 11122 1 109.50000 418.400000
1458 16331 5012 1 109.50000 418.400000
1458 16331 10734 1 109.50000 418.400000
1458 16331 11076 1 109.50000 418.400000
5012 16331 10734 1 109.50000 418.400000
5012 16331 11076 1 109.50000 418.400000
10734 16331 11076 1 109.50000 418.400000
2538 16332 6352 1 109.50000 418.400000
2538 16332 6530 1 109.50000 418.400000
2538 16332 7018 1 109.50000 418.400000
6352 16332 6530 1 109.50000 418.400000
6352 16332 7018 1 109.50000 418.400000
6530 16332 7018 1 109.50000 418.400000
1966 16333 3814 1 109.50000 418.400000
1966 16333 10103 1 109.50000 418.400000
1966 16333 11123 1 109.50000 418.400000
3814 16333 10103 1 109.50000 418.400000
3814 16333 11123 1 109.50000 418.400000
10103 16333 11123 1 109.50000 418.400000
2098 16334 2099 1 109.50000 418.400000
2098 16334 5776 1 109.50000 418.400000
2098 16334 10419 1 109.50000 418.400000
2099 16334 5776 1 109.50000 418.400000
2099 16334 10419 1 109.50000 418.400000
5776 16334 10419 1 109.50000 418.400000
3062 16335 5161 1 109.50000 418.400000
3062 16335 5162 1 109.50000 418.400000
3062 16335 10984 1 109.50000 418.400000
5161 16335 5162 1 109.50000 418.400000
5161 16335 10984 1 109.50000 418.400000
5162 16335 10984 1 109.50000 418.400000
4205 16336 7226 1 109.50000 418.400000
4205 16336 9368 1 109.50000 418.400000
4205 16336 11010 1 109.50000 418.400000
7226 16336 9368 1 109.50000 418.400000
7226 16336 11010 1 109.50000 418.400000
9368 16336 11010 1 109.50000 418.400000
994 16337 6005 1 109.50000 418.400000
994 16337 10929 1 109.50000 418.400000
994 16337 10960 1 109.50000 418.400000
6005 16337 10929 1 109.50000 418.400000
6005 16337 10960 1 109.50000 418.400000
10929 16337 10960 1 109.50000 418.400000
2934 16338 9186 1 109.50000 418.400000
2934 16338 10261 1 109.50000 418.400000
2934 16338 10351 1 109.50000 418.400000
9186 16338 10261 1 109.50000 418.400000
9186 16338 10351 1 109.50000 418.400000
10261 16338 10351 1 109.50000 418.400000
1656 16339 5198 1 109.50000 418.400000
1656 16339 8110 1 109.50000 418.400000
1656 16339 9833 1 109.50000 418.400000
5198 16339 8110 1 109.50000 418.400000
5198 16339 9833 1 109.50000 418.400000
8110 16339 9833 1 109.50000 418.400000
2619 16340 3128 1 109.50000 418.400000
2619 16340 7023 1 109.50000 418.400000
2619 16340 10965 1 109.50000 418.400000
3128 16340 7023 1 109.50000 418.400000
3128 16340 10965 1 109.50000 418.400000
7023 16340 10965 1 109.50000 418.400000
428 16341 4508 1 109.50000 418.400000
428 16341 5681 1 109.50000 418.400000
428 16341 11087 1 109.50000 418.400000
4508 16341 5681 1 109.50000 418.400000
4508 16341 11087 1 109.50000 418.400000
5681 16341 11087 1 109.50000 418.400000
4414 16342 5987 1 109.50000 418.400000
4414 16342 8401 1 109.50000 418.400000
4414 16342 10624 1 109.50000 418.400000
5987 16342 8401 1 109.50000 418.400000
5987 16342 10624 1 109.50000 418.400000
8401 16342 10624 1 109.50000 418.400000
5015 16343 7322 1 109.50000 418.400000
5015 16343 7889 1 109.50000 418.400000
5015 16343 10973 1 109.50000 418.400000
7322 16343 7889 1 109.50000 418.400000
7322 16343 10973 1 109.50000 418.400000
7889 16343 10973 1 109.50000 418.400000
3411 16344 10079 1 109.50000 418.400000
3411 16344 10680 1 109.50000 418.400000
3411 16344 11053 1 109.50000 418.400000
10079 16344 10680 1 109.50000 418.400000
10079 16344 11053 1 109.50000 418.400000
10680 16344 11053 1 109.50000 418.400000
2940 16345 4320 1 109.50000 418.400000
2940 16345 4652 1 109.50000 418.400000
2940 16345 9735 1 109.50000 418.400000
4320 16345 4652 1 109.50000 418.400000
4320 16345 9735 1 109.50000 418.400000
4652 16345 9735 1 109.50000 418.400000
520 16346 2176 1 109.50000 418.400000
520 16346 2178 1 109.50000 418.400000
520 16346 11124 1 109.50000 418.400000
2176 16346 2178 1 109.50000 418.400000
2176 16346 11124 1 109.50000 418.400000
2178 16346 11124 1 109.50000 418.400000
10377 16347 10639 1 109.50000 418.400000
10377 16347 11054 1 109.50000 418.400000
10377 16347 11115 1 109.50000 418.400000
10639 16347 11054 1 109.50000 418.400000
10639 16347 11115 1 109.50000 418.400000
11054 16347 11115 1 109.50000 418.400000
3837 16348 7972 1 109.50000 418.400000
3837 16348 7973 1 109.50000 418.400000
3837 16348 7974 1 109.50000 418.400000
7972 16348 7973 1 109.50000 418.400000
7972 16348 7974 1 109.50000 418.400000
7973 16348 7974 1 109.50000 418.400000
85 16349 2406 1 109.50000 418.400000
85 16349 6731 1 109.50000 418.400000
85 16349 10062 1 109.50000 418.400000
2406 16349 6731 1 109.50000 418.400000
2406 16349 10062 1 109.50000 418.400000
6731 16349 10062 1 109.50000 418.400000
3489 16350 9205 1 109.50000 418.400000
3489 16350 10386 1 109.50000 418.400000
3489 16350 10907 1 109.50000 418.400000
9205 16350 10386 1 109.50000 418.400000
9205 16350 10907 1 109.50000 418.400000
10386 16350 10907 1 109.50000 418.400000
2108 16351 3589 1 109.50000 418.400000
2108 16351 5844 1 109.50000 418.400000
2108 16351 8994 1 109.50000 418.400000
3589 16351 5844 1 109.50000 418.400000
3589 16351 8994 1 109.50000 418.400000
5844 16351 8994 1 109.50000 418.400000
6648 16352 7954 1 109.50000 418.400000
6648 16352 10359 1 109.50000 418.400000
6648 16352 10537 1 109.50000 418.400000
7954 16352 10359 1 109.50000 418.400000
7954 16352 10537 1 109.50000 418.400000
10359 16352 10537 1 109.50000 418.400000
6778 16353 9546 1 109.50000 418.400000
6778 16353 9814 1 109.50000 418.400000
6778 16353 10510 1 109.50000 418.400000
9546 16353 9814 1 109.50000 418.400000
9546 16353 10510 1 109.50000 418.400000
9814 16353 10510 1 109.50000 418.400000
1543 16354 9207 1 109.50000 418.400000
1543 16354 9274 1 109.50000 418.400000
1543 16354 10850 1 109.50000 418.400000
9207 16354 9274 1 109.50000 418.400000
9207 16354 10850 1 109.50000 418.400000
9274 16354 10850 1 109.50000 418.400000
824 16355 6394 1 109.50000 418.400000
824 16355 10601 1 109.50000 418.400000
824 16355 11065 1 109.50000 418.400000
6394 16355 10601 1 109.50000 418.400000
6394 16355 11065 1 109.50000 418.400000
10601 16355 11065 1 109.50000 418.400000
1284 16356 1285 1 109.50000 418.400000
1284 16356 5949 1 109.50000 418.400000
1284 16356 10699 1 109.50000 418.400000
1285 16356 5949 1 109.50000 418.400000
1285 16356 10699 1 109.50000 418.400000
5949 16356 10699 1 109.50000 418.400000
4105 16357 5215 1 109.50000 418.400000
4105 16357 9539 1 109.50000 418.400000
4105 16357 11018 1 109.50000 418.400000
5215 16357 9539 1 109.50000 418.400000
5215 16357 11018 1 109.50000 418.400000
9539 16357 11018 1 109.50000 418.400000
7523 16358 9123 1 109.50000 418.400000
7523 16358 10809 1 109.50000 418.400000
7523 16358 11082 1 109.50000 418.400000
9123 16358 10809 1 109.50000 418.400000
9123 16358 11082 1 109.50000 418.400000
10809 16358 11082 1 109.50000 418.400000
338 16359 4532 1 109.50000 418.400000
338 16359 8670 1 109.50000 418.400000
338 16359 9680 1 109.50000 418.400000
4532 16359 8670 1 109.50000 418.400000
4532 16359 9680 1 109.50000 418.400000
8670 16359 9680 1 109.50000 418.400000
382 16360 10509 1 109.50000 418.400000
382 16360 10796 1 109.50000 418.400000
382 16360 10978 1 109.50000 418.400000
10509 16360 10796 1 109.50000 418.400000
10509 16360 10978 1 109.50000 418.400000
10796 16360 10978 1 109.50000 418.400000
1295 16361 2041 1 109.50000 418.400000
1295 16361 3752 1 109.50000 418.400000
1295 16361 4326 1 109.50000 418.400000
2041 16361 3752 1 109.50000 418.400000
2041 16361 4326 1 109.50000 418.400000
3752 16361 4326 1 109.50000 418.400000
1449 16362 5760 1 109.50000 418.400000
1449 16362 5815 1 109.50000 418.400000
1449 16362 7336 1 109.50000 418.400000
5760 16362 5815 1 109.50000 418.400000
5760 16362 7336 1 109.50000 418.400000
5815 16362 7336 1 109.50000 418.400000
2173 16363 7382 1 109.50000 418.400000
2173 16363 8025 1 109.50000 418.400000
2173 16363 10039 1 109.50000 418.400000
7382 16363 8025 1 109.50000 418.400000
7382 16363 10039 1 109.50000 418.400000
8025 16363 10039 1 109.50000 418.400000
247 16364 587 1 109.50000 418.400000
247 16364 7961 1 109.50000 418.400000
247 16364 10709 1 109.50000 418.400000
587 16364 7961 1 109.50000 418.400000
587 16364 10709 1 109.50000 418.400000
7961 16364 10709 1 109.50000 418.400000
947 16365 2466 1 109.50000 418.400000
947 16365 6955 1 109.50000 418.400000
947 16365 9488 1 109.50000 418.400000
2466 16365 6955 1 109.50000 418.400000
2466 16365 9488 1 109.50000 418.400000
6955 16365 9488 1 109.50000 418.400000
4107 16366 8159 1 109.50000 418.400000
4107 16366 10436 1 109.50000 418.400000
4107 16366 11126 1 109.50000 418.400000
8159 16366 10436 1 109.50000 418.400000
8159 16366 11126 1 109.50000 418.400000
10436 16366 11126 1 109.50000 418.400000
2395 16367 2397 1 109.50000 418.400000
2395 16367 4283 1 109.50000 418.400000
2395 16367 8310 1 109.50000 418.400000
2397 16367 4283 1 109.50000 418.400000
2397 16367 8310 1 109.50000 418.400000
4283 16367 8310 1 109.50000 418.400000
364 16368 4503 1 109.50000 418.400000
364 16368 6325 1 109.50000 418.400000
364 16368 7134 1 109.50000 418.400000
4503 16368 6325 1 109.50000 418.400000
4503 16368 7134 1 109.50000 418.400000
6325 16368 7134 1 109.50000 418.400000
5435 16369 6804 1 109.50000 418.400000
5435 16369 7587 1 109.50000 418.400000
5435 16369 10921 1 109.50000 418.400000
6804 16369 7587 1 109.50000 418.400000
6804 16369 10921 1 109.50000 418.400000
7587 16369 10921 1 109.50000 418.400000
1103 16370 7537 1 109.50000 418.400000
1103 16370 10107 1 109.50000 418.400000
1103 16370 11127 1 109.50000 418.400000
7537 16370 10107 1 109.50000 418.400000
7537 16370 11127 1 109.50000 418.400000
10107 16370 11127 1 109.50000 418.400000
1079 16371 1890 1 109.50000 418.400000
1079 16371 7150 1 109.50000 418.400000
1079 16371 7759 1 109.50000 418.400000
1890 16371 7150 1 109.50000 418.400000
1890 16371 7759 1 109.50000 418.400000
7150 16371 7759 1 109.50000 418.400000
6328 16372 8332 1 109.50000 418.400000
6328 16372 9638 1 109.50000 418.400000
6328 16372 11128 1 109.50000 418.400000
8332 16372 9638 1 109.50000 418.400000
8332 16372 11128 1 109.50000 418.400000
9638 16372 11128 1 109.50000 418.400000
6278 16373 9381 1 109.50000 418.400000
6278 16373 10102 1 109.50000 418.400000
6278 16373 10897 1 109.50000 418.400000
9381 16373 10102 1 109.50000 418.400000
9381 16373 10897 1 109.50000 418.400000
10102 16373 10897 1 109.50000 418.400000
2980 16374 9149 1 109.50000 418.400000
2980 16374 11017 1 109.50000 418.400000
2980 16374 11129 1 109.50000 418.400000
9149 16374 11017 1 109.50000 418.400000
9149 16374 11129 1 109.50000 418.400000
11017 16374 11129 1 109.50000 418.400000
2477 16375 2479 1 109.50000 418.400000
2477 16375 3081 1 109.50000 418.400000
2477 16375 9339 1 109.50000 418.400000
2479 16375 3081 1 109.50000 418.400000
2479 16375 9339 1 109.50000 418.400000
3081 16375 9339 1 109.50000 418.400000
6061 16376 7684 1 109.50000 418.400000
6061 16376 10847 1 109.50000 418.400000
6061 16376 11031 1 109.50000 418.400000
7684 16376 10847 1 109.50000 418.400000
7684 16376 11031 1 109.50000 418.400000
10847 16376 11031 1 109.50000 418.400000
2634 16377 7729 1 109.50000 418.400000
2634 16377 9088 1 109.50000 418.400000
2634 16377 9868 1 109.50000 418.400000
7729 16377 9088 1 109.50000 418.400000
7729 16377 9868 1 109.50000 418.400000
9088 16377 9868 1 109.50000 418.400000
2828 16378 4120 1 109.50000 418.400000
2828 16378 9523 1 109.50000 418.400000
2828 16378 11114 1 109.50000 418.400000
4120 16378 9523 1 109.50000 418.400000
4120 16378 11114 1 109.50000 418.400000
9523 16378 11114 1 109.50000 418.400000
10579 16379 10887 1 109.50000 418.400000
10579 16379 11095 1 109.50000 418.400000
10579 16379 11097 1 109.50000 418.400000
10887 16379 11095 1 109.50000 418.400000
10887 16379 11097 1 109.50000 418.400000
11095 16379 11097 1 109.50000 418.400000
6241 16380 6351 1 109.50000 418.400000
6241 16380 6404 1 109.50000 418.400000
6241 16380 9875 1 109.50000 418.400000
6351 16380 6404 1 109.50000 418.400000
6351 16380 9875 1 109.50000 418.400000
6404 16380 9875 1 109.50000 418.400000
124 16381 2331 1 109.50000 418.400000
124 16381 8116 1 109.50000 418.400000
124 16381 11130 1 109.50000 418.400000
2331 16381 8116 1 109.50000 418.400000
2331 16381 11130 1 109.50000 418.400000
8116 16381 11130 1 109.50000 418.400000
8735 16382 10446 1 109.50000 418.400000
8735 16382 10733 1 109.50000 418.400000
8735 16382 11113 1 109.50000 418.400000
10446 16382 10733 1 109.50000 418.400000
10446 16382 11113 1 109.50000 418.400000
10733 16382 11113 1 109.50000 418.400000
2608 16383 3982 1 109.50000 418.400000
2608 16383 10848 1 109.50000 418.400000
2608 16383 11100 1 109.50000 418.400000
3982 16383 10848 1 109.50000 418.400000
3982 16383 11100 1 109.50000 418.400000
10848 16383 11100 1 109.50000 418.400000
3732 16384 10938 1 109.50000 418.400000
3732 16384 10989 1 109.50000 418.400000
3732 16384 11066 1 109.50000 418.400000
10938 16384 10989 1 109.50000 418.400000
10938 16384 11066 1 109.50000 418.400000
10989 16384 11066 1 109.50000 418.400000
2124 16385 3528 1 109.50000 418.400000
2124 16385 7972 1 109.50000 418.400000
2124 16385 10156 1 109.50000 418.400000
3528 16385 7972 1 109.50000 418.400000
3528 16385 10156 1 109.50000 418.400000
7972 16385 10156 1 109.50000 418.400000
1001 16386 4931 1 109.50000 418.400000
1001 16386 9451 1 109.50000 418.400000
1001 16386 10909 1 109.50000 418.400000
4931 16386 9451 1 109.50000 418.400000
4931 16386 10909 1 109.50000 418.400000
9451 16386 10909 1 109.50000 418.400000
2291 16387 9617 1 109.50000 418.400000
2291 16387 10215 1 109.50000 418.400000
2291 16387 10812 1 109.50000 418.400000
9617 16387 10215 1 109.50000 418.400000
9617 16387 10812 1 109.50000 418.400000
10215 16387 10812 1 109.50000 418.400000
4300 16388 4445 1 109.50000 418.400000
4300 16388 8557 1 109.50000 418.400000
4300 16388 11127 1 109.50000 418.400000
4445 16388 8557 1 109.50000 418.400000
4445 16388 11127 1 109.50000 418.400000
8557 16388 11127 1 109.50000 418.400000
3865 16389 5537 1 109.50000 418.400000
3865 16389 5668 1 109.50000 418.400000
3865 16389 8996 1 109.50000 418.400000
5537 16389 5668 1 109.50000 418.400000
5537 16389 8996 1 109.50000 418.400000
5668 16389 8996 1 109.50000 418.400000
5623 16390 9503 1 109.50000 418.400000
5623 16390 9924 1 109.50000 418.400000
5623 16390 11048 1 109.50000 418.400000
9503 16390 9924 1 109.50000 418.400000
9503 16390 11048 1 109.50000 418.400000
9924 16390 11048 1 109.50000 418.400000
4520 16391 8697 1 109.50000 418.400000
4520 16391 10827 1 109.50000 418.400000
4520 16391 11131 1 109.50000 418.400000
8697 16391 10827 1 109.50000 418.400000
8697 16391 11131 1 109.50000 418.400000
10827 16391 11131 1 109.50000 418.400000
4726 16392 7378 1 109.50000 418.400000
4726 16392 8319 1 109.50000 418.400000
4726 16392 8516 1 109.50000 418.400000
7378 16392 8319 1 109.50000 418.400000
7378 16392 8516 1 109.50000 418.400000
8319 16392 8516 1 109.50000 418.400000
1287 16393 1897 1 109.50000 418.400000
1287 16393 3833 1 109.50000 418.400000
1287 16393 10899 1 109.50000 418.400000
1897 16393 3833 1 109.50000 418.400000
1897 16393 10899 1 109.50000 418.400000
3833 16393 10899 1 109.50000 418.400000
7654 16394 8739 1 109.50000 418.400000
7654 16394 10454 1 109.50000 418.400000
7654 16394 11096 1 109.50000 418.400000
8739 16394 10454 1 109.50000 418.400000
8739 16394 11096 1 109.50000 418.400000
10454 16394 11096 1 109.50000 418.400000
465 16395 8347 1 109.50000 418.400000
465 16395 10007 1 109.50000 418.400000
465 16395 10792 1 109.50000 418.400000
8347 16395 10007 1 109.50000 418.400000
8347 16395 10792 1 109.50000 418.400000
10007 16395 10792 1 109.50000 418.400000
2269 16396 2270 1 109.50000 418.400000
2269 16396 6796 1 109.50000 418.400000
2269 16396 11123 1 109.50000 418.400000
2270 16396 6796 1 109.50000 418.400000
2270 16396 11123 1 109.50000 418.400000
6796 16396 11123 1 109.50000 418.400000
2951 16397 5399 1 109.50000 418.400000
2951 16397 10106 1 109.50000 418.400000
2951 16397 10596 1 109.50000 418.400000
5399 16397 10106 1 109.50000 418.400000
5399 16397 10596 1 109.50000 418.400000
10106 16397 10596 1 109.50000 418.400000
4277 16398 8607 1 109.50000 418.400000
4277 16398 10503 1 109.50000 418.400000
4277 16398 10548 1 109.50000 418.400000
8607 16398 10503 1 109.50000 418.400000
8607 16398 10548 1 109.50000 418.400000
10503 16398 10548 1 109.50000 418.400000
6673 16399 7561 1 109.50000 418.400000
6673 16399 9850 1 109.50000 418.400000
6673 16399 11079 1 109.50000 418.400000
7561 16399 9850 1 109.50000 418.400000
7561 16399 11079 1 109.50000 418.400000
9850 16399 11079 1 109.50000 418.400000
3398 16400 8542 1 109.50000 418.400000
3398 16400 11084 1 109.50000 418.400000
3398 16400 11130 1 109.50000 418.400000
8542 16400 11084 1 109.50000 418.400000
8542 16400 11130 1 109.50000 418.400000
11084 16400 11130 1 109.50000 418.400000
2989 16401 4560 1 109.50000 418.400000
2989 16401 5262 1 109.50000 418.400000
2989 16401 5266 1 109.50000 418.400000
4560 16401 5262 1 109.50000 418.400000
4560 16401 5266 1 109.50000 418.400000
5262 16401 5266 1 109.50000 418.400000
6529 16402 10287 1 109.50000 418.400000
6529 16402 10789 1 109.50000 418.400000
6529 16402 11132 1 109.50000 418.400000
10287 16402 10789 1 109.50000 418.400000
10287 16402 11132 1 109.50000 418.400000
10789 16402 11132 1 109.50000 418.400000
2162 16403 2595 1 109.50000 418.400000
2162 16403 9456 1 109.50000 418.400000
2162 16403 11007 1 109.50000 418.400000
2595 16403 9456 1 109.50000 418.400000
2595 16403 11007 1 109.50000 418.400000
9456 16403 11007 1 109.50000 418.400000
224 16404 3114 1 109.50000 418.400000
224 16404 6829 1 109.50000 418.400000
224 16404 10455 1 109.50000 418.400000
3114 16404 6829 1 109.50000 418.400000
3114 16404 10455 1 109.50000 418.400000
6829 16404 10455 1 109.50000 418.400000
1071 16405 6221 1 109.50000 418.400000
1071 16405 9174 1 109.50000 418.400000
1071 16405 10115 1 109.50000 418.400000
6221 16405 9174 1 109.50000 418.400000
6221 16405 10115 1 109.50000 418.400000
9174 16405 10115 1 109.50000 418.400000
1262 16406 5418 1 109.50000 418.400000
1262 16406 6751 1 109.50000 418.400000
1262 16406 9880 1 109.50000 418.400000
5418 16406 6751 1 109.50000 418.400000
5418 16406 9880 1 109.50000 418.400000
6751 16406 9880 1 109.50000 418.400000
7988 16407 8127 1 109.50000 418.400000
7988 16407 10234 1 109.50000 418.400000
7988 16407 11129 1 109.50000 418.400000
8127 16407 10234 1 109.50000 418.400000
8127 16407 11129 1 109.50000 418.400000
10234 16407 11129 1 109.50000 418.400000
2999 16408 3997 1 109.50000 418.400000
2999 16408 8855 1 109.50000 418.400000
2999 16408 10245 1 109.50000 418.400000
3997 16408 8855 1 109.50000 418.400000
3997 16408 10245 1 109.50000 418.400000
8855 16408 10245 1 109.50000 418.400000
8210 16409 9001 1 109.50000 418.400000
8210 16409 10356 1 109.50000 418.400000
8210 16409 11196 1 109.50000 418.400000
9001 16409 10356 1 109.50000 418.400000
9001 16409 11196 1 109.50000 418.400000
10356 16409 11196 1 109.50000 418.400000
3748 16410 4413 1 109.50000 418.400000
3748 16410 10093 1 109.50000 418.400000
3748 16410 11126 1 109.50000 418.400000
4413 16410 10093 1 109.50000 418.400000
4413 16410 11126 1 109.50000 418.400000
10093 16410 11126 1 109.50000 418.400000
213 16411 2717 1 109.50000 418.400000
213 16411 5168 1 109.50000 418.400000
213 16411 7175 1 109.50000 418.400000
2717 16411 5168 1 109.50000 418.400000
2717 16411 7175 1 109.50000 418.400000
5168 16411 7175 1 109.50000 418.400000
2657 16412 6688 1 109.50000 418.400000
2657 16412 10353 1 109.50000 418.400000
2657 16412 11122 1 109.50000 418.400000
6688 16412 10353 1 109.50000 418.400000
6688 16412 11122 1 109.50000 418.400000
10353 16412 11122 1 109.50000 418.400000
4977 16413 8238 1 109.50000 418.400000
4977 16413 10024 1 109.50000 418.400000
4977 16413 10272 1 109.50000 418.400000
8238 16413 10024 1 109.50000 418.400000
8238 16413 10272 1 109.50000 418.400000
10024 16413 10272 1 109.50000 418.400000
2826 16414 8949 1 109.50000 418.400000
2826 16414 10011 1 109.50000 418.400000
2826 16414 10993 1 109.50000 418.400000
8949 16414 10011 1 109.50000 418.400000
8949 16414 10993 1 109.50000 418.400000
10011 16414 10993 1 109.50000 418.400000
7258 16415 7940 1 109.50000 418.400000
7258 16415 9297 1 109.50000 418.400000
7258 16415 9696 1 109.50000 418.400000
7940 16415 9297 1 109.50000 418.400000
7940 16415 9696 1 109.50000 418.400000
9297 16415 9696 1 109.50000 418.400000
2598 16416 7439 1 109.50000 418.400000
2598 16416 10101 1 109.50000 418.400000
2598 16416 11120 1 109.50000 418.400000
7439 16416 10101 1 109.50000 418.400000
7439 16416 11120 1 109.50000 418.400000
10101 16416 11120 1 109.50000 418.400000
3282 16417 4561 1 109.50000 418.400000
3282 16417 9683 1 109.50000 418.400000
3282 16417 11085 1 109.50000 418.400000
4561 16417 9683 1 109.50000 418.400000
4561 16417 11085 1 109.50000 418.400000
9683 16417 11085 1 109.50000 418.400000
1587 16418 1588 1 109.50000 418.400000
1587 16418 9166 1 109.50000 418.400000
1587 16418 11089 1 109.50000 418.400000
1588 16418 9166 1 109.50000 418.400000
1588 16418 11089 1 109.50000 418.400000
9166 16418 11089 1 109.50000 418.400000
5649 16419 7718 1 109.50000 418.400000
5649 16419 8206 1 109.50000 418.400000
5649 16419 9620 1 109.50000 418.400000
7718 16419 8206 1 109.50000 418.400000
7718 16419 9620 1 109.50000 418.400000
8206 16419 9620 1 109.50000 418.400000
3129 16420 7347 1 109.50000 418.400000
3129 16420 10931 1 109.50000 418.400000
3129 16420 10985 1 109.50000 418.400000
7347 16420 10931 1 109.50000 418.400000
7347 16420 10985 1 109.50000 418.400000
10931 16420 10985 1 109.50000 418.400000
9319 16421 9776 1 109.50000 418.400000
9319 16421 10375 1 109.50000 418.400000
9319 16421 11133 1 109.50000 418.400000
9776 16421 10375 1 109.50000 418.400000
9776 16421 11133 1 109.50000 418.400000
10375 16421 11133 1 109.50000 418.400000
7757 16422 10606 1 109.50000 418.400000
7757 16422 10742 1 109.50000 418.400000
7757 16422 11125 1 109.50000 418.400000
10606 16422 10742 1 109.50000 418.400000
10606 16422 11125 1 109.50000 418.400000
10742 16422 11125 1 109.50000 418.400000
3735 16423 9853 1 109.50000 418.400000
3735 16423 10593 1 109.50000 418.400000
3735 16423 10991 1 109.50000 418.400000
9853 16423 10593 1 109.50000 418.400000
9853 16423 10991 1 109.50000 418.400000
10593 16423 10991 1 109.50000 418.400000
2078 16424 3750 1 109.50000 418.400000
2078 16424 10368 1 109.50000 418.400000
2078 16424 10703 1 109.50000 418.400000
3750 16424 10368 1 109.50000 418.400000
3750 16424 10703 1 109.50000 418.400000
10368 16424 10703 1 109.50000 418.400000
210 16425 6704 1 109.50000 418.400000
210 16425 9070 1 109.50000 418.400000
210 16425 9127 1 109.50000 418.400000
6704 16425 9070 1 109.50000 418.400000
6704 16425 9127 1 109.50000 418.400000
9070 16425 9127 1 109.50000 418.400000
562 16426 7447 1 109.50000 418.400000
562 16426 8946 1 109.50000 418.400000
562 16426 9577 1 109.50000 418.400000
7447 16426 8946 1 109.50000 418.400000
7447 16426 9577 1 109.50000 418.400000
8946 16426 9577 1 109.50000 418.400000
2125 16427 4502 1 109.50000 418.400000
2125 16427 6562 1 109.50000 418.400000
2125 16427 6867 1 109.50000 418.400000
4502 16427 6562 1 109.50000 418.400000
4502 16427 6867 1 109.50000 418.400000
6562 16427 6867 1 109.50000 418.400000
3047 16428 6001 1 109.50000 418.400000
3047 16428 8554 1 109.50000 418.400000
3047 16428 10888 1 109.50000 418.400000
6001 16428 8554 1 109.50000 418.400000
6001 16428 10888 1 109.50000 418.400000
8554 16428 10888 1 109.50000 418.400000
1153 16429 6016 1 109.50000 418.400000
1153 16429 11101 1 109.50000 418.400000
1153 16429 11124 1 109.50000 418.400000
6016 16429 11101 1 109.50000 418.400000
6016 16429 11124 1 109.50000 418.400000
11101 16429 11124 1 109.50000 418.400000
5358 16430 9748 1 109.50000 418.400000
5358 16430 10497 1 109.50000 418.400000
5358 16430 11091 1 109.50000 418.400000
9748 16430 10497 1 109.50000 418.400000
9748 16430 11091 1 109.50000 418.400000
10497 16430 11091 1 109.50000 418.400000
4667 16431 6066 1 109.50000 418.400000
4667 16431 8216 1 109.50000 418.400000
4667 16431 8925 1 109.50000 418.400000
6066 16431 8216 1 109.50000 418.400000
6066 16431 8925 1 109.50000 418.400000
8216 16431 8925 1 109.50000 418.400000
9812 16432 10052 1 109.50000 418.400000
9812 16432 11064 1 109.50000 418.400000
9812 16432 11134 1 109.50000 418.400000
10052 16432 11064 1 109.50000 418.400000
10052 16432 11134 1 109.50000 418.400000
11064 16432 11134 1 109.50000 418.400000
662 16433 663 1 109.50000 418.400000
662 16433 6282 1 109.50000 418.400000
662 16433 7349 1 109.50000 418.400000
663 16433 6282 1 109.50000 418.400000
663 16433 7349 1 109.50000 418.400000
6282 16433 7349 1 109.50000 418.400000
313 16434 3016 1 109.50000 418.400000
313 16434 6103 1 109.50000 418.400000
313 16434 11135 1 109.50000 418.400000
3016 16434 6103 1 109.50000 418.400000
3016 16434 11135 1 109.50000 418.400000
6103 16434 11135 1 109.50000 418.400000
2556 16435 6329 1 109.50000 418.400000
2556 16435 10602 1 109.50000 418.400000
2556 16435 10953 1 109.50000 418.400000
6329 16435 10602 1 109.50000 418.400000
6329 16435 10953 1 109.50000 418.400000
10602 16435 10953 1 109.50000 418.400000
6050 16436 8783 1 109.50000 418.400000
6050 16436 8965 1 109.50000 418.400000
6050 16436 9693 1 109.50000 418.400000
8783 16436 8965 1 109.50000 418.400000
8783 16436 9693 1 109.50000 418.400000
8965 16436 9693 1 109.50000 418.400000
4489 16437 6242 1 109.50000 418.400000
4489 16437 6880 1 109.50000 418.400000
4489 16437 9749 1 109.50000 418.400000
6242 16437 6880 1 109.50000 418.400000
6242 16437 9749 1 109.50000 418.400000
6880 16437 9749 1 109.50000 418.400000
7535 16438 8020 1 109.50000 418.400000
7535 16438 10781 1 109.50000 418.400000
7535 16438 11056 1 109.50000 418.400000
8020 16438 10781 1 109.50000 418.400000
8020 16438 11056 1 109.50000 418.400000
10781 16438 11056 1 109.50000 418.400000
8 16439 2247 1 109.50000 418.400000
8 16439 5024 1 109.50000 418.400000
8 16439 9052 1 109.50000 418.400000
2247 16439 5024 1 109.50000 418.400000
2247 16439 9052 1 109.50000 418.400000
5024 16439 9052 1 109.50000 418.400000
3921 16440 4342 1 109.50000 418.400000
3921 16440 10695 1 109.50000 418.400000
3921 16440 10849 1 109.50000 418.400000
4342 16440 10695 1 109.50000 418.400000
4342 16440 10849 1 109.50000 418.400000
10695 16440 10849 1 109.50000 418.400000
3538 16441 6348 1 109.50000 418.400000
3538 16441 7868 1 109.50000 418.400000
3538 16441 11121 1 109.50000 418.400000
6348 16441 7868 1 109.50000 418.400000
6348 16441 11121 1 109.50000 418.400000
7868 16441 11121 1 109.50000 418.400000
3562 16442 5652 1 109.50000 418.400000
3562 16442 7962 1 109.50000 418.400000
3562 16442 11094 1 109.50000 418.400000
5652 16442 7962 1 109.50000 418.400000
5652 16442 11094 1 109.50000 418.400000
7962 16442 11094 1 109.50000 418.400000
526 16443 8467 1 109.50000 418.400000
526 16443 9195 1 109.50000 418.400000
526 16443 10056 1 109.50000 418.400000
8467 16443 9195 1 109.50000 418.400000
8467 16443 10056 1 109.50000 418.400000
9195 16443 10056 1 109.50000 418.400000
1083 16444 4636 1 109.50000 418.400000
1083 16444 5142 1 109.50000 418.400000
1083 16444 11232 1 109.50000 418.400000
4636 16444 5142 1 109.50000 418.400000
4636 16444 11232 1 109.50000 418.400000
5142 16444 11232 1 109.50000 418.400000
2725 16445 3394 1 109.50000 418.400000
2725 16445 8850 1 109.50000 418.400000
2725 16445 10805 1 109.50000 418.400000
3394 16445 8850 1 109.50000 418.400000
3394 16445 10805 1 109.50000 418.400000
8850 16445 10805 1 109.50000 418.400000
330 16446 996 1 109.50000 418.400000
330 16446 10347 1 109.50000 418.400000
330 16446 10959 1 109.50000 418.400000
996 16446 10347 1 109.50000 418.400000
996 16446 10959 1 109.50000 418.400000
10347 16446 10959 1 109.50000 418.400000
106 16447 7827 1 109.50000 418.400000
106 16447 10374 1 109.50000 418.400000
106 16447 10880 1 109.50000 418.400000
7827 16447 10374 1 109.50000 418.400000
7827 16447 10880 1 109.50000 418.400000
10374 16447 10880 1 109.50000 418.400000
2413 16448 7984 1 109.50000 418.400000
2413 16448 10614 1 109.50000 418.400000
2413 16448 11058 1 109.50000 418.400000
7984 16448 10614 1 109.50000 418.400000
7984 16448 11058 1 109.50000 418.400000
10614 16448 11058 1 109.50000 418.400000
9293 16449 9484 1 109.50000 418.400000
9293 16449 9516 1 109.50000 418.400000
9293 16449 10894 1 109.50000 418.400000
9484 16449 9516 1 109.50000 418.400000
9484 16449 10894 1 109.50000 418.400000
9516 16449 10894 1 109.50000 418.400000
403 16450 9687 1 109.50000 418.400000
403 16450 9688 1 109.50000 418.400000
403 16450 10600 1 109.50000 418.400000
9687 16450 9688 1 109.50000 418.400000
9687 16450 10600 1 109.50000 418.400000
9688 16450 10600 1 109.50000 418.400000
8930 16451 9281 1 109.50000 418.400000
8930 16451 9385 1 109.50000 418.400000
8930 16451 10817 1 109.50000 418.400000
9281 16451 9385 1 109.50000 418.400000
9281 16451 10817 1 109.50000 418.400000
9385 16451 10817 1 109.50000 418.400000
2215 16452 7755 1 109.50000 418.400000
2215 16452 9211 1 109.50000 418.400000
2215 16452 10590 1 109.50000 418.400000
7755 16452 9211 1 109.50000 418.400000
7755 16452 10590 1 109.50000 418.400000
9211 16452 10590 1 109.50000 418.400000
3458 16453 10713 1 109.50000 418.400000
3458 16453 11047 1 109.50000 418.400000
3458 16453 11108 1 109.50000 418.400000
10713 16453 11047 1 109.50000 418.400000
10713 16453 11108 1 109.50000 418.400000
11047 16453 11108 1 109.50000 418.400000
1968 16454 2771 1 109.50000 418.400000
1968 16454 7055 1 109.50000 418.400000
1968 16454 9322 1 109.50000 418.400000
2771 16454 7055 1 109.50000 418.400000
2771 16454 9322 1 109.50000 418.400000
7055 16454 9322 1 109.50000 418.400000
7697 16455 7699 1 109.50000 418.400000
7697 16455 9436 1 109.50000 418.400000
7697 16455 9634 1 109.50000 418.400000
7699 16455 9436 1 109.50000 418.400000
7699 16455 9634 1 109.50000 418.400000
9436 16455 9634 1 109.50000 418.400000
3901 16456 9639 1 109.50000 418.400000
3901 16456 10757 1 109.50000 418.400000
3901 16456 11039 1 109.50000 418.400000
9639 16456 10757 1 109.50000 418.400000
9639 16456 11039 1 109.50000 418.400000
10757 16456 11039 1 109.50000 418.400000
7240 16457 7304 1 109.50000 418.400000
7240 16457 8480 1 109.50000 418.400000
7240 16457 11024 1 109.50000 418.400000
7304 16457 8480 1 109.50000 418.400000
7304 16457 11024 1 109.50000 418.400000
8480 16457 11024 1 109.50000 418.400000
4218 16458 7824 1 109.50000 418.400000
4218 16458 9986 1 109.50000 418.400000
4218 16458 10559 1 109.50000 418.400000
7824 16458 9986 1 109.50000 418.400000
7824 16458 10559 1 109.50000 418.400000
9986 16458 10559 1 109.50000 418.400000
2192 16459 2653 1 109.50000 418.400000
2192 16459 8291 1 109.50000 418.400000
2192 16459 10837 1 109.50000 418.400000
2653 16459 8291 1 109.50000 418.400000
2653 16459 10837 1 109.50000 418.400000
8291 16459 10837 1 109.50000 418.400000
1263 16460 7341 1 109.50000 418.400000
1263 16460 8672 1 109.50000 418.400000
1263 16460 10554 1 109.50000 418.400000
7341 16460 8672 1 109.50000 418.400000
7341 16460 10554 1 109.50000 418.400000
8672 16460 10554 1 109.50000 418.400000
1869 16461 8017 1 109.50000 418.400000
1869 16461 8627 1 109.50000 418.400000
1869 16461 11111 1 109.50000 418.400000
8017 16461 8627 1 109.50000 418.400000
8017 16461 11111 1 109.50000 418.400000
8627 16461 11111 1 109.50000 418.400000
2748 16462 10317 1 109.50000 418.400000
2748 16462 11043 1 109.50000 418.400000
2748 16462 11153 1 109.50000 418.400000
10317 16462 11043 1 109.50000 418.400000
10317 16462 11153 1 109.50000 418.400000
11043 16462 11153 1 109.50000 418.400000
7353 16463 8230 1 109.50000 418.400000
7353 16463 10465 1 109.50000 418.400000
7353 16463 11136 1 109.50000 418.400000
8230 16463 10465 1 109.50000 418.400000
8230 16463 11136 1 109.50000 418.400000
10465 16463 11136 1 109.50000 418.400000
3710 16464 10743 1 109.50000 418.400000
3710 16464 10873 1 109.50000 418.400000
3710 16464 10988 1 109.50000 418.400000
10743 16464 10873 1 109.50000 418.400000
10743 16464 10988 1 109.50000 418.400000
10873 16464 10988 1 109.50000 418.400000
1866 16465 2606 1 109.50000 418.400000
1866 16465 2607 1 109.50000 418.400000
1866 16465 11128 1 109.50000 418.400000
2606 16465 2607 1 109.50000 418.400000
2606 16465 11128 1 109.50000 418.400000
2607 16465 11128 1 109.50000 418.400000
3048 16466 8030 1 109.50000 418.400000
3048 16466 8715 1 109.50000 418.400000
3048 16466 11116 1 109.50000 418.400000
8030 16466 8715 1 109.50000 418.400000
8030 16466 11116 1 109.50000 418.400000
8715 16466 11116 1 109.50000 418.400000
2186 16467 10689 1 109.50000 418.400000
2186 16467 10853 1 109.50000 418.400000
2186 16467 11016 1 109.50000 418.400000
10689 16467 10853 1 109.50000 418.400000
10689 16467 11016 1 109.50000 418.400000
10853 16467 11016 1 109.50000 418.400000
68 16468 121 1 109.50000 418.400000
68 16468 9771 1 109.50000 418.400000
68 16468 11137 1 109.50000 418.400000
121 16468 9771 1 109.50000 418.400000
121 16468 11137 1 109.50000 418.400000
9771 16468 11137 1 109.50000 418.400000
414 16469 493 1 109.50000 418.400000
414 16469 3746 1 109.50000 418.400000
414 16469 4109 1 109.50000 418.400000
493 16469 3746 1 109.50000 418.400000
493 16469 4109 1 109.50000 418.400000
3746 16469 4109 1 109.50000 418.400000
266 16470 8394 1 109.50000 418.400000
266 16470 8905 1 109.50000 418.400000
266 16470 10830 1 109.50000 418.400000
8394 16470 8905 1 109.50000 418.400000
8394 16470 10830 1 109.50000 418.400000
8905 16470 10830 1 109.50000 418.400000
4570 16471 9007 1 109.50000 418.400000
4570 16471 9580 1 109.50000 418.400000
4570 16471 11117 1 109.50000 418.400000
9007 16471 9580 1 109.50000 418.400000
9007 16471 11117 1 109.50000 418.400000
9580 16471 11117 1 109.50000 418.400000
4660 16472 5456 1 109.50000 418.400000
4660 16472 5517 1 109.50000 418.400000
4660 16472 8952 1 109.50000 418.400000
5456 16472 5517 1 109.50000 418.400000
5456 16472 8952 1 109.50000 418.400000
5517 16472 8952 1 109.50000 418.400000
4037 16473 5590 1 109.50000 418.400000
4037 16473 9133 1 109.50000 418.400000
4037 16473 9534 1 109.50000 418.400000
5590 16473 9133 1 109.50000 418.400000
5590 16473 9534 1 109.50000 418.400000
9133 16473 9534 1 109.50000 418.400000
5049 16474 5050 1 109.50000 418.400000
5049 16474 6764 1 109.50000 418.400000
5049 16474 7554 1 109.50000 418.400000
5050 16474 6764 1 109.50000 418.400000
5050 16474 7554 1 109.50000 418.400000
6764 16474 7554 1 109.50000 418.400000
6809 16475 7056 1 109.50000 418.400000
6809 16475 7794 1 109.50000 418.400000
6809 16475 10152 1 109.50000 418.400000
7056 16475 7794 1 109.50000 418.400000
7056 16475 10152 1 109.50000 418.400000
7794 16475 10152 1 109.50000 418.400000
2743 16476 3812 1 109.50000 418.400000
2743 16476 8479 1 109.50000 418.400000
2743 16476 10255 1 109.50000 418.400000
3812 16476 8479 1 109.50000 418.400000
3812 16476 10255 1 109.50000 418.400000
8479 16476 10255 1 109.50000 418.400000
3776 16477 6735 1 109.50000 418.400000
3776 16477 10626 1 109.50000 418.400000
3776 16477 11245 1 109.50000 418.400000
6735 16477 10626 1 109.50000 418.400000
6735 16477 11245 1 109.50000 418.400000
10626 16477 11245 1 109.50000 418.400000
6838 16478 7425 1 109.50000 418.400000
6838 16478 10449 1 109.50000 418.400000
6838 16478 10912 1 109.50000 418.400000
7425 16478 10449 1 109.50000 418.400000
7425 16478 10912 1 109.50000 418.400000
10449 16478 10912 1 109.50000 418.400000
3738 16479 4384 1 109.50000 418.400000
3738 16479 5974 1 109.50000 418.400000
3738 16479 11145 1 109.50000 418.400000
4384 16479 5974 1 109.50000 418.400000
4384 16479 11145 1 109.50000 418.400000
5974 16479 11145 1 109.50000 418.400000
1106 16480 5200 1 109.50000 418.400000
1106 16480 9078 1 109.50000 418.400000
1106 16480 11133 1 109.50000 418.400000
5200 16480 9078 1 109.50000 418.400000
5200 16480 11133 1 109.50000 418.400000
9078 16480 11133 1 109.50000 418.400000
3161 16481 5611 1 109.50000 418.400000
3161 16481 8406 1 109.50000 418.400000
3161 16481 10688 1 109.50000 418.400000
5611 16481 8406 1 109.50000 418.400000
5611 16481 10688 1 109.50000 418.400000
8406 16481 10688 1 109.50000 418.400000
2887 16482 8382 1 109.50000 418.400000
2887 16482 9886 1 109.50000 418.400000
2887 16482 11068 1 109.50000 418.400000
8382 16482 9886 1 109.50000 418.400000
8382 16482 11068 1 109.50000 418.400000
9886 16482 11068 1 109.50000 418.400000
1428 16483 2920 1 109.50000 418.400000
1428 16483 3069 1 109.50000 418.400000
1428 16483 9897 1 109.50000 418.400000
2920 16483 3069 1 109.50000 418.400000
2920 16483 9897 1 109.50000 418.400000
3069 16483 9897 1 109.50000 418.400000
4264 16484 9434 1 109.50000 418.400000
4264 16484 9854 1 109.50000 418.400000
4264 16484 11112 1 109.50000 418.400000
9434 16484 9854 1 109.50000 418.400000
9434 16484 11112 1 109.50000 418.400000
9854 16484 11112 1 109.50000 418.400000
7348 16485 7864 1 109.50000 418.400000
7348 16485 9885 1 109.50000 418.400000
7348 16485 10804 1 109.50000 418.400000
7864 16485 9885 1 109.50000 418.400000
7864 16485 10804 1 109.50000 418.400000
9885 16485 10804 1 109.50000 418.400000
4836 16486 8688 1 109.50000 418.400000
4836 16486 9253 1 109.50000 418.400000
4836 16486 9923 1 109.50000 418.400000
8688 16486 9253 1 109.50000 418.400000
8688 16486 9923 1 109.50000 418.400000
9253 16486 9923 1 109.50000 418.400000
4477 16487 6230 1 109.50000 418.400000
4477 16487 10274 1 109.50000 418.400000
4477 16487 11059 1 109.50000 418.400000
6230 16487 10274 1 109.50000 418.400000
6230 16487 11059 1 109.50000 418.400000
10274 16487 11059 1 109.50000 418.400000
7400 16488 7765 1 109.50000 418.400000
7400 16488 7790 1 109.50000 418.400000
7400 16488 10258 1 109.50000 418.400000
7765 16488 7790 1 109.50000 418.400000
7765 16488 10258 1 109.50000 418.400000
7790 16488 10258 1 109.50000 418.400000
7242 16489 10168 1 109.50000 418.400000
7242 16489 10183 1 109.50000 418.400000
7242 16489 11118 1 109.50000 418.400000
10168 16489 10183 1 109.50000 418.400000
10168 16489 11118 1 109.50000 418.400000
10183 16489 11118 1 109.50000 418.400000
1670 16490 5285 1 109.50000 418.400000
1670 16490 10180 1 109.50000 418.400000
1670 16490 10391 1 109.50000 418.400000
5285 16490 10180 1 109.50000 418.400000
5285 16490 10391 1 109.50000 418.400000
10180 16490 10391 1 109.50000 418.400000
1878 16491 4887 1 109.50000 418.400000
1878 16491 7927 1 109.50000 418.400000
1878 16491 8571 1 109.50000 418.400000
4887 16491 7927 1 109.50000 418.400000
4887 16491 8571 1 109.50000 418.400000
7927 16491 8571 1 109.50000 418.400000
1739 16492 1741 1 109.50000 418.400000
1739 16492 6036 1 109.50000 418.400000
1739 16492 11088 1 109.50000 418.400000
1741 16492 6036 1 109.50000 418.400000
1741 16492 11088 1 109.50000 418.400000
6036 16492 11088 1 109.50000 418.400000
9278 16493 10174 1 109.50000 418.400000
9278 16493 11019 1 109.50000 418.400000
9278 16493 11135 1 109.50000 418.400000
10174 16493 11019 1 109.50000 418.400000
10174 16493 11135 1 109.50000 418.400000
11019 16493 11135 1 109.50000 418.400000
77 16494 6088 1 109.50000 418.400000
77 16494 10869 1 109.50000 418.400000
77 16494 11105 1 109.50000 418.400000
6088 16494 10869 1 109.50000 418.400000
6088 16494 11105 1 109.50000 418.400000
10869 16494 11105 1 109.50000 418.400000
3275 16495 4647 1 109.50000 418.400000
3275 16495 9806 1 109.50000 418.400000
3275 16495 10886 1 109.50000 418.400000
4647 16495 9806 1 109.50000 418.400000
4647 16495 10886 1 109.50000 418.400000
9806 16495 10886 1 109.50000 418.400000
712 16496 8255 1 109.50000 418.400000
712 16496 8336 1 109.50000 418.400000
712 16496 10881 1 109.50000 418.400000
8255 16496 8336 1 109.50000 418.400000
8255 16496 10881 1 109.50000 418.400000
8336 16496 10881 1 109.50000 418.400000
83 16497 9429 1 109.50000 418.400000
83 16497 9716 1 109.50000 418.400000
83 16497 10157 1 109.50000 418.400000
9429 16497 9716 1 109.50000 418.400000
9429 16497 10157 1 109.50000 418.400000
9716 16497 10157 1 109.50000 418.400000
10280 16498 10298 1 109.50000 418.400000
10280 16498 10309 1 109.50000 418.400000
10280 16498 10748 1 109.50000 418.400000
10298 16498 10309 1 109.50000 418.400000
10298 16498 10748 1 109.50000 418.400000
10309 16498 10748 1 109.50000 418.400000
6076 16499 7112 1 109.50000 418.400000
6076 16499 8312 1 109.50000 418.400000
6076 16499 10939 1 109.50000 418.400000
7112 16499 8312 1 109.50000 418.400000
7112 16499 10939 1 109.50000 418.400000
8312 16499 10939 1 109.50000 418.400000
7616 16500 10226 1 109.50000 418.400000
7616 16500 10896 1 109.50000 418.400000
7616 16500 10961 1 109.50000 418.400000
10226 16500 10896 1 109.50000 418.400000
10226 16500 10961 1 109.50000 418.400000
10896 16500 10961 1 109.50000 418.400000
2389 16501 10037 1 109.50000 418.400000
2389 16501 11131 1 109.50000 418.400000
2389 16501 11132 1 109.50000 418.400000
10037 16501 11131 1 109.50000 418.400000
10037 16501 11132 1 109.50000 418.400000
11131 16501 11132 1 109.50000 418.400000
614 16502 7832 1 109.50000 418.400000
614 16502 7833 1 109.50000 418.400000
614 16502 10256 1 109.50000 418.400000
7832 16502 7833 1 109.50000 418.400000
7832 16502 10256 1 109.50000 418.400000
7833 16502 10256 1 109.50000 418.400000
5117 16503 5513 1 109.50000 418.400000
5117 16503 8971 1 109.50000 418.400000
5117 16503 10350 1 109.50000 418.400000
5513 16503 8971 1 109.50000 418.400000
5513 16503 10350 1 109.50000 418.400000
8971 16503 10350 1 109.50000 418.400000
8225 16504 10196 1 109.50000 418.400000
8225 16504 10573 1 109.50000 418.400000
8225 16504 11015 1 109.50000 418.400000
10196 16504 10573 1 109.50000 418.400000
10196 16504 11015 1 109.50000 418.400000
10573 16504 11015 1 109.50000 418.400000
990 16505 3918 1 109.50000 418.400000
990 16505 5487 1 109.50000 418.400000
990 16505 7552 1 109.50000 418.400000
3918 16505 5487 1 109.50000 418.400000
3918 16505 7552 1 109.50000 418.400000
5487 16505 7552 1 109.50000 418.400000
2823 16506 3283 1 109.50000 418.400000
2823 16506 8524 1 109.50000 418.400000
2823 16506 8987 1 109.50000 418.400000
3283 16506 8524 1 109.50000 418.400000
3283 16506 8987 1 109.50000 418.400000
8524 16506 8987 1 109.50000 418.400000
6677 16507 10059 1 109.50000 418.400000
6677 16507 11033 1 109.50000 418.400000
6677 16507 11099 1 109.50000 418.400000
10059 16507 11033 1 109.50000 418.400000
10059 16507 11099 1 109.50000 418.400000
11033 16507 11099 1 109.50000 418.400000
2663 16508 6355 1 109.50000 418.400000
2663 16508 6959 1 109.50000 418.400000
2663 16508 8963 1 109.50000 418.400000
6355 16508 6959 1 109.50000 418.400000
6355 16508 8963 1 109.50000 418.400000
6959 16508 8963 1 109.50000 418.400000
660 16509 1902 1 109.50000 418.400000
660 16509 10934 1 109.50000 418.400000
660 16509 11134 1 109.50000 418.400000
1902 16509 10934 1 109.50000 418.400000
1902 16509 11134 1 109.50000 418.400000
10934 16509 11134 1 109.50000 418.400000
2923 16510 5081 1 109.50000 418.400000
2923 16510 5436 1 109.50000 418.400000
2923 16510 9475 1 109.50000 418.400000
5081 16510 5436 1 109.50000 418.400000
5081 16510 9475 1 109.50000 418.400000
5436 16510 9475 1 109.50000 418.400000
1776 16511 3011 1 109.50000 418.400000
1776 16511 8518 1 109.50000 418.400000
1776 16511 10947 1 109.50000 418.400000
3011 16511 8518 1 109.50000 418.400000
3011 16511 10947 1 109.50000 418.400000
8518 16511 10947 1 109.50000 418.400000
2644 16512 3986 1 109.50000 418.400000
2644 16512 6752 1 109.50000 418.400000
2644 16512 9439 1 109.50000 418.400000
3986 16512 6752 1 109.50000 418.400000
3986 16512 9439 1 109.50000 418.400000
6752 16512 9439 1 109.50000 418.400000
1074 16513 1661 1 109.50000 418.400000
1074 16513 4448 1 109.50000 418.400000
1074 16513 11036 1 109.50000 418.400000
1661 16513 4448 1 109.50000 418.400000
1661 16513 11036 1 109.50000 418.400000
4448 16513 11036 1 109.50000 418.400000
4661 16514 5106 1 109.50000 418.400000
4661 16514 7454 1 109.50000 418.400000
4661 16514 8268 1 109.50000 418.400000
5106 16514 7454 1 109.50000 418.400000
5106 16514 8268 1 109.50000 418.400000
7454 16514 8268 1 109.50000 418.400000
3485 16515 3536 1 109.50000 418.400000
3485 16515 4290 1 109.50000 418.400000
3485 16515 10360 1 109.50000 418.400000
3536 16515 4290 1 109.50000 418.400000
3536 16515 10360 1 109.50000 418.400000
4290 16515 10360 1 109.50000 418.400000
177 16516 1271 1 109.50000 418.400000
177 16516 1805 1 109.50000 418.400000
177 16516 3357 1 109.50000 418.400000
1271 16516 1805 1 109.50000 418.400000
1271 16516 3357 1 109.50000 418.400000
1805 16516 3357 1 109.50000 418.400000
948 16517 6340 1 109.50000 418.400000
948 16517 8958 1 109.50000 418.400000
948 16517 10292 1 109.50000 418.400000
6340 16517 8958 1 109.50000 418.400000
6340 16517 10292 1 109.50000 418.400000
8958 16517 10292 1 109.50000 418.400000
645 16518 2721 1 109.50000 418.400000
645 16518 6714 1 109.50000 418.400000
645 16518 9793 1 109.50000 418.400000
2721 16518 6714 1 109.50000 418.400000
2721 16518 9793 1 109.50000 418.400000
6714 16518 9793 1 109.50000 418.400000
5591 16519 7331 1 109.50000 418.400000
5591 16519 10202 1 109.50000 418.400000
5591 16519 11136 1 109.50000 418.400000
7331 16519 10202 1 109.50000 418.400000
7331 16519 11136 1 109.50000 418.400000
10202 16519 11136 1 109.50000 418.400000
1447 16520 1824 1 109.50000 418.400000
1447 16520 2794 1 109.50000 418.400000
1447 16520 3201 1 109.50000 418.400000
1824 16520 2794 1 109.50000 418.400000
1824 16520 3201 1 109.50000 418.400000
2794 16520 3201 1 109.50000 418.400000
9165 16521 10229 1 109.50000 418.400000
9165 16521 10402 1 109.50000 418.400000
9165 16521 10800 1 109.50000 418.400000
10229 16521 10402 1 109.50000 418.400000
10229 16521 10800 1 109.50000 418.400000
10402 16521 10800 1 109.50000 418.400000
8160 16522 9522 1 109.50000 418.400000
8160 16522 10244 1 109.50000 418.400000
8160 16522 11119 1 109.50000 418.400000
9522 16522 10244 1 109.50000 418.400000
9522 16522 11119 1 109.50000 418.400000
10244 16522 11119 1 109.50000 418.400000
4866 16523 5887 1 109.50000 418.400000
4866 16523 7830 1 109.50000 418.400000
4866 16523 10996 1 109.50000 418.400000
5887 16523 7830 1 109.50000 418.400000
5887 16523 10996 1 109.50000 418.400000
7830 16523 10996 1 109.50000 418.400000
3238 16524 4431 1 109.50000 418.400000
3238 16524 9080 1 109.50000 418.400000
3238 16524 10297 1 109.50000 418.400000
4431 16524 9080 1 109.50000 418.400000
4431 16524 10297 1 109.50000 418.400000
9080 16524 10297 1 109.50000 418.400000
8273 16525 9095 1 109.50000 418.400000
8273 16525 9418 1 109.50000 418.400000
8273 16525 10344 1 109.50000 418.400000
9095 16525 9418 1 109.50000 418.400000
9095 16525 10344 1 109.50000 418.400000
9418 16525 10344 1 109.50000 418.400000
5071 16526 6175 1 109.50000 418.400000
5071 16526 6178 1 109.50000 418.400000
5071 16526 6787 1 109.50000 418.400000
6175 16526 6178 1 109.50000 418.400000
6175 16526 6787 1 109.50000 418.400000
6178 16526 6787 1 109.50000 418.400000
16527 16528 16529 1 119.8800511 375.723200
16527 16528 16537 1 119.8800511 375.723200
16529 16528 16537 1 120.0200517 532.790560
16528 16529 16530 1 121.3800518 83.010560
16528 16529 16531 1 120.0200517 532.790560
16530 16529 16531 1 121.3800518 83.010560
1750 16530 4922 1 109.50000 418.400000
1750 16530 16529 1 103.70004 836.800000
1750 16530 16539 1 109.50000 418.400000
4922 16530 16529 1 103.70004 836.800000
4922 16530 16539 1 109.50000 418.400000
16529 16530 16539 1 103.70004 1034.033760
16529 16531 16532 1 119.8800511 375.723200
16529 16531 16533 1 120.0200517 532.790560
16532 16531 16533 1 119.8800511 375.723200
16531 16533 16534 1 119.8800511 375.723200
16531 16533 16535 1 120.0200517 532.790560
16534 16533 16535 1 119.8800511 375.723200
16533 16535 16536 1 119.8800511 375.723200
16533 16535 16537 1 120.0200517 532.790560
16536 16535 16537 1 119.8800511 375.723200
16528 16537 16535 1 120.0200517 532.790560
16528 16537 16538 1 119.8800511 375.723200
16535 16537 16538 1 119.8800511 375.723200
16530 16539 16540 1 115.00000 209.200000
16541 16542 16543 1 119.8800511 375.723200
16541 16542 16551 1 119.8800511 375.723200
16543 16542 16551 1 120.0200517 532.790560
16542 16543 16544 1 121.3800518 83.010560
16542 16543 16545 1 120.0200517 532.790560
16544 16543 16545 1 121.3800518 83.010560
1717 16544 6926 1 109.50000 418.400000
1717 16544 16543 1 103.70004 836.800000
1717 16544 16553 1 109.50000 418.400000
6926 16544 16543 1 103.70004 836.800000
6926 16544 16553 1 109.50000 418.400000
16543 16544 16553 1 103.70004 1034.033760
16543 16545 16546 1 119.8800511 375.723200
16543 16545 16547 1 120.0200517 532.790560
16546 16545 16547 1 119.8800511 375.723200
16545 16547 16548 1 119.8800511 375.723200
16545 16547 16549 1 120.0200517 532.790560
16548 16547 16549 1 119.8800511 375.723200
16547 16549 16550 1 119.8800511 375.723200
16547 16549 16551 1 120.0200517 532.790560
16550 16549 16551 1 119.8800511 375.723200
16542 16551 16549 1 120.0200517 532.790560
16542 16551 16552 1 119.8800511 375.723200
16549 16551 16552 1 119.8800511 375.723200
16544 16553 16554 1 115.00000 209.200000
16555 16556 16557 1 119.8800511 375.723200
16555 16556 16565 1 119.8800511 375.723200
16557 16556 16565 1 120.0200517 532.790560
16556 16557 16558 1 121.3800518 83.010560
16556 16557 16559 1 120.0200517 532.790560
16558 16557 16559 1 121.3800518 83.010560
5175 16558 6186 1 109.50000 418.400000
5175 16558 16557 1 103.70004 836.800000
5175 16558 16567 1 109.50000 418.400000
6186 16558 16557 1 103.70004 836.800000
6186 16558 16567 1 109.50000 418.400000
16557 16558 16567 1 103.70004 1034.033760
16557 16559 16560 1 119.8800511 375.723200
16557 16559 16561 1 120.0200517 532.790560
16560 16559 16561 1 119.8800511 375.723200
16559 16561 16562 1 119.8800511 375.723200
16559 16561 16563 1 120.0200517 532.790560
16562 16561 16563 1 119.8800511 375.723200
16561 16563 16564 1 119.8800511 375.723200
16561 16563 16565 1 120.0200517 532.790560
16564 16563 16565 1 119.8800511 375.723200
16556 16565 16563 1 120.0200517 532.790560
16556 16565 16566 1 119.8800511 375.723200
16563 16565 16566 1 119.8800511 375.723200
16558 16567 16568 1 115.00000 209.200000
16569 16570 16571 1 119.8800511 375.723200
16569 16570 16579 1 119.8800511 375.723200
16571 16570 16579 1 120.0200517 532.790560
16570 16571 16572 1 121.3800518 83.010560
16570 16571 16573 1 120.0200517 532.790560
16572 16571 16573 1 121.3800518 83.010560
8012 16572 8013 1 109.50000 418.400000
8012 16572 16571 1 103.70004 836.800000
8012 16572 16581 1 109.50000 418.400000
8013 16572 16571 1 103.70004 836.800000
8013 16572 16581 1 109.50000 418.400000
16571 16572 16581 1 103.70004 1034.033760
16571 16573 16574 1 119.8800511 375.723200
16571 16573 16575 1 120.0200517 532.790560
16574 16573 16575 1 119.8800511 375.723200
16573 16575 16576 1 119.8800511 375.723200
16573 16575 16577 1 120.0200517 532.790560
16576 16575 16577 1 119.8800511 375.723200
16575 16577 16578 1 119.8800511 375.723200
16575 16577 16579 1 120.0200517 532.790560
16578 16577 16579 1 119.8800511 375.723200
16570 16579 16577 1 120.0200517 532.790560
16570 16579 16580 1 119.8800511 375.723200
16577 16579 16580 1 119.8800511 375.723200
16572 16581 16582 1 115.00000 209.200000
16583 16584 16585 1 119.8800511 375.723200
16583 16584 16593 1 119.8800511 375.723200
16585 16584 16593 1 120.0200517 532.790560
16584 16585 16586 1 121.3800518 83.010560
16584 16585 16587 1 120.0200517 532.790560
16586 16585 16587 1 121.3800518 83.010560
6646 16586 8043 1 109.50000 418.400000
6646 16586 16585 1 103.70004 836.800000
6646 16586 16595 1 109.50000 418.400000
8043 16586 16585 1 103.70004 836.800000
8043 16586 16595 1 109.50000 418.400000
16585 16586 16595 1 103.70004 1034.033760
16585 16587 16588 1 119.8800511 375.723200
16585 16587 16589 1 120.0200517 532.790560
16588 16587 16589 1 119.8800511 375.723200
16587 16589 16590 1 119.8800511 375.723200
16587 16589 16591 1 120.0200517 532.790560
16590 16589 16591 1 119.8800511 375.723200
16589 16591 16592 1 119.8800511 375.723200
16589 16591 16593 1 120.0200517 532.790560
16592 16591 16593 1 119.8800511 375.723200
16584 16593 16591 1 120.0200517 532.790560
16584 16593 16594 1 119.8800511 375.723200
16591 16593 16594 1 119.8800511 375.723200
16586 16595 16596 1 115.00000 209.200000
16597 16598 16599 1 119.8800511 375.723200
16597 16598 16607 1 119.8800511 375.723200
16599 16598 16607 1 120.0200517 532.790560
16598 16599 16600 1 121.3800518 83.010560
16598 16599 16601 1 120.0200517 532.790560
16600 16599 16601 1 121.3800518 83.010560
24 16600 8067 1 109.50000 418.400000
24 16600 16599 1 103.70004 836.800000
24 16600 16609 1 109.50000 418.400000
8067 16600 16599 1 103.70004 836.800000
8067 16600 16609 1 109.50000 418.400000
16599 16600 16609 1 103.70004 1034.033760
16599 16601 16602 1 119.8800511 375.723200
16599 16601 16603 1 120.0200517 532.790560
16602 16601 16603 1 119.8800511 375.723200
16601 16603 16604 1 119.8800511 375.723200
16601 16603 16605 1 120.0200517 532.790560
16604 16603 16605 1 119.8800511 375.723200
16603 16605 16606 1 119.8800511 375.723200
16603 16605 16607 1 120.0200517 532.790560
16606 16605 16607 1 119.8800511 375.723200
16598 16607 16605 1 120.0200517 532.790560
16598 16607 16608 1 119.8800511 375.723200
16605 16607 16608 1 119.8800511 375.723200
16600 16609 16610 1 115.00000 209.200000
16611 16612 16613 1 119.8800511 375.723200
16611 16612 16621 1 119.8800511 375.723200
16613 16612 16621 1 120.0200517 532.790560
16612 16613 16614 1 121.3800518 83.010560
16612 16613 16615 1 120.0200517 532.790560
16614 16613 16615 1 121.3800518 83.010560
5561 16614 8198 1 109.50000 418.400000
5561 16614 16613 1 103.70004 836.800000
5561 16614 16623 1 109.50000 418.400000
8198 16614 16613 1 103.70004 836.800000
8198 16614 16623 1 109.50000 418.400000
16613 16614 16623 1 103.70004 1034.033760
16613 16615 16616 1 119.8800511 375.723200
16613 16615 16617 1 120.0200517 532.790560
16616 16615 16617 1 119.8800511 375.723200
16615 16617 16618 1 119.8800511 375.723200
16615 16617 16619 1 120.0200517 532.790560
16618 16617 16619 1 119.8800511 375.723200
16617 16619 16620 1 119.8800511 375.723200
16617 16619 16621 1 120.0200517 532.790560
16620 16619 16621 1 119.8800511 375.723200
16612 16621 16619 1 120.0200517 532.790560
16612 16621 16622 1 119.8800511 375.723200
16619 16621 16622 1 119.8800511 375.723200
16614 16623 16624 1 115.00000 209.200000
16625 16626 16627 1 119.8800511 375.723200
16625 16626 16635 1 119.8800511 375.723200
16627 16626 16635 1 120.0200517 532.790560
16626 16627 16628 1 121.3800518 83.010560
16626 16627 16629 1 120.0200517 532.790560
16628 16627 16629 1 121.3800518 83.010560
7860 16628 8222 1 109.50000 418.400000
7860 16628 16627 1 103.70004 836.800000
7860 16628 16637 1 109.50000 418.400000
8222 16628 16627 1 103.70004 836.800000
8222 16628 16637 1 109.50000 418.400000
16627 16628 16637 1 103.70004 1034.033760
16627 16629 16630 1 119.8800511 375.723200
16627 16629 16631 1 120.0200517 532.790560
16630 16629 16631 1 119.8800511 375.723200
16629 16631 16632 1 119.8800511 375.723200
16629 16631 16633 1 120.0200517 532.790560
16632 16631 16633 1 119.8800511 375.723200
16631 16633 16634 1 119.8800511 375.723200
16631 16633 16635 1 120.0200517 532.790560
16634 16633 16635 1 119.8800511 375.723200
16626 16635 16633 1 120.0200517 532.790560
16626 16635 16636 1 119.8800511 375.723200
16633 16635 16636 1 119.8800511 375.723200
16628 16637 16638 1 115.00000 209.200000
16639 16640 16641 1 119.8800511 375.723200
16639 16640 16649 1 119.8800511 375.723200
16641 16640 16649 1 120.0200517 532.790560
16640 16641 16642 1 121.3800518 83.010560
16640 16641 16643 1 120.0200517 532.790560
16642 16641 16643 1 121.3800518 83.010560
205 16642 1944 1 109.50000 418.400000
205 16642 16641 1 103.70004 836.800000
205 16642 16651 1 109.50000 418.400000
1944 16642 16641 1 103.70004 836.800000
1944 16642 16651 1 109.50000 418.400000
16641 16642 16651 1 103.70004 1034.033760
16641 16643 16644 1 119.8800511 375.723200
16641 16643 16645 1 120.0200517 532.790560
16644 16643 16645 1 119.8800511 375.723200
16643 16645 16646 1 119.8800511 375.723200
16643 16645 16647 1 120.0200517 532.790560
16646 16645 16647 1 119.8800511 375.723200
16645 16647 16648 1 119.8800511 375.723200
16645 16647 16649 1 120.0200517 532.790560
16648 16647 16649 1 119.8800511 375.723200
16640 16649 16647 1 120.0200517 532.790560
16640 16649 16650 1 119.8800511 375.723200
16647 16649 16650 1 119.8800511 375.723200
16642 16651 16652 1 115.00000 209.200000
16653 16654 16655 1 119.8800511 375.723200
16653 16654 16663 1 119.8800511 375.723200
16655 16654 16663 1 120.0200517 532.790560
16654 16655 16656 1 121.3800518 83.010560
16654 16655 16657 1 120.0200517 532.790560
16656 16655 16657 1 121.3800518 83.010560
1742 16656 4270 1 109.50000 418.400000
1742 16656 16655 1 103.70004 836.800000
1742 16656 16665 1 109.50000 418.400000
4270 16656 16655 1 103.70004 836.800000
4270 16656 16665 1 109.50000 418.400000
16655 16656 16665 1 103.70004 1034.033760
16655 16657 16658 1 119.8800511 375.723200
16655 16657 16659 1 120.0200517 532.790560
16658 16657 16659 1 119.8800511 375.723200
16657 16659 16660 1 119.8800511 375.723200
16657 16659 16661 1 120.0200517 532.790560
16660 16659 16661 1 119.8800511 375.723200
16659 16661 16662 1 119.8800511 375.723200
16659 16661 16663 1 120.0200517 532.790560
16662 16661 16663 1 119.8800511 375.723200
16654 16663 16661 1 120.0200517 532.790560
16654 16663 16664 1 119.8800511 375.723200
16661 16663 16664 1 119.8800511 375.723200
16656 16665 16666 1 115.00000 209.200000
16667 16668 16669 1 119.8800511 375.723200
16667 16668 16677 1 119.8800511 375.723200
16669 16668 16677 1 120.0200517 532.790560
16668 16669 16670 1 121.3800518 83.010560
16668 16669 16671 1 120.0200517 532.790560
16670 16669 16671 1 121.3800518 83.010560
775 16670 8265 1 109.50000 418.400000
775 16670 16669 1 103.70004 836.800000
775 16670 16679 1 109.50000 418.400000
8265 16670 16669 1 103.70004 836.800000
8265 16670 16679 1 109.50000 418.400000
16669 16670 16679 1 103.70004 1034.033760
16669 16671 16672 1 119.8800511 375.723200
16669 16671 16673 1 120.0200517 532.790560
16672 16671 16673 1 119.8800511 375.723200
16671 16673 16674 1 119.8800511 375.723200
16671 16673 16675 1 120.0200517 532.790560
16674 16673 16675 1 119.8800511 375.723200
16673 16675 16676 1 119.8800511 375.723200
16673 16675 16677 1 120.0200517 532.790560
16676 16675 16677 1 119.8800511 375.723200
16668 16677 16675 1 120.0200517 532.790560
16668 16677 16678 1 119.8800511 375.723200
16675 16677 16678 1 119.8800511 375.723200
16670 16679 16680 1 115.00000 209.200000
16681 16682 16683 1 119.8800511 375.723200
16681 16682 16691 1 119.8800511 375.723200
16683 16682 16691 1 120.0200517 532.790560
16682 16683 16684 1 121.3800518 83.010560
16682 16683 16685 1 120.0200517 532.790560
16684 16683 16685 1 121.3800518 83.010560
8276 16684 10397 1 109.50000 418.400000
8276 16684 16683 1 103.70004 836.800000
8276 16684 16693 1 109.50000 418.400000
10397 16684 16683 1 103.70004 836.800000
10397 16684 16693 1 109.50000 418.400000
16683 16684 16693 1 103.70004 1034.033760
16683 16685 16686 1 119.8800511 375.723200
16683 16685 16687 1 120.0200517 532.790560
16686 16685 16687 1 119.8800511 375.723200
16685 16687 16688 1 119.8800511 375.723200
16685 16687 16689 1 120.0200517 532.790560
16688 16687 16689 1 119.8800511 375.723200
16687 16689 16690 1 119.8800511 375.723200
16687 16689 16691 1 120.0200517 532.790560
16690 16689 16691 1 119.8800511 375.723200
16682 16691 16689 1 120.0200517 532.790560
16682 16691 16692 1 119.8800511 375.723200
16689 16691 16692 1 119.8800511 375.723200
16684 16693 16694 1 115.00000 209.200000
16695 16696 16697 1 119.8800511 375.723200
16695 16696 16705 1 119.8800511 375.723200
16697 16696 16705 1 120.0200517 532.790560
16696 16697 16698 1 121.3800518 83.010560
16696 16697 16699 1 120.0200517 532.790560
16698 16697 16699 1 121.3800518 83.010560
8288 16698 8289 1 109.50000 418.400000
8288 16698 16697 1 103.70004 836.800000
8288 16698 16707 1 109.50000 418.400000
8289 16698 16697 1 103.70004 836.800000
8289 16698 16707 1 109.50000 418.400000
16697 16698 16707 1 103.70004 1034.033760
16697 16699 16700 1 119.8800511 375.723200
16697 16699 16701 1 120.0200517 532.790560
16700 16699 16701 1 119.8800511 375.723200
16699 16701 16702 1 119.8800511 375.723200
16699 16701 16703 1 120.0200517 532.790560
16702 16701 16703 1 119.8800511 375.723200
16701 16703 16704 1 119.8800511 375.723200
16701 16703 16705 1 120.0200517 532.790560
16704 16703 16705 1 119.8800511 375.723200
16696 16705 16703 1 120.0200517 532.790560
16696 16705 16706 1 119.8800511 375.723200
16703 16705 16706 1 119.8800511 375.723200
16698 16707 16708 1 115.00000 209.200000
16709 16710 16711 1 119.8800511 375.723200
16709 16710 16719 1 119.8800511 375.723200
16711 16710 16719 1 120.0200517 532.790560
16710 16711 16712 1 121.3800518 83.010560
16710 16711 16713 1 120.0200517 532.790560
16712 16711 16713 1 121.3800518 83.010560
943 16712 8371 1 109.50000 418.400000
943 16712 16711 1 103.70004 836.800000
943 16712 16721 1 109.50000 418.400000
8371 16712 16711 1 103.70004 836.800000
8371 16712 16721 1 109.50000 418.400000
16711 16712 16721 1 103.70004 1034.033760
16711 16713 16714 1 119.8800511 375.723200
16711 16713 16715 1 120.0200517 532.790560
16714 16713 16715 1 119.8800511 375.723200
16713 16715 16716 1 119.8800511 375.723200
16713 16715 16717 1 120.0200517 532.790560
16716 16715 16717 1 119.8800511 375.723200
16715 16717 16718 1 119.8800511 375.723200
16715 16717 16719 1 120.0200517 532.790560
16718 16717 16719 1 119.8800511 375.723200
16710 16719 16717 1 120.0200517 532.790560
16710 16719 16720 1 119.8800511 375.723200
16717 16719 16720 1 119.8800511 375.723200
16712 16721 16722 1 115.00000 209.200000
16723 16724 16725 1 119.8800511 375.723200
16723 16724 16733 1 119.8800511 375.723200
16725 16724 16733 1 120.0200517 532.790560
16724 16725 16726 1 121.3800518 83.010560
16724 16725 16727 1 120.0200517 532.790560
16726 16725 16727 1 121.3800518 83.010560
2494 16726 6827 1 109.50000 418.400000
2494 16726 16725 1 103.70004 836.800000
2494 16726 16735 1 109.50000 418.400000
6827 16726 16725 1 103.70004 836.800000
6827 16726 16735 1 109.50000 418.400000
16725 16726 16735 1 103.70004 1034.033760
16725 16727 16728 1 119.8800511 375.723200
16725 16727 16729 1 120.0200517 532.790560
16728 16727 16729 1 119.8800511 375.723200
16727 16729 16730 1 119.8800511 375.723200
16727 16729 16731 1 120.0200517 532.790560
16730 16729 16731 1 119.8800511 375.723200
16729 16731 16732 1 119.8800511 375.723200
16729 16731 16733 1 120.0200517 532.790560
16732 16731 16733 1 119.8800511 375.723200
16724 16733 16731 1 120.0200517 532.790560
16724 16733 16734 1 119.8800511 375.723200
16731 16733 16734 1 119.8800511 375.723200
16726 16735 16736 1 115.00000 209.200000
16737 16738 16739 1 119.8800511 375.723200
16737 16738 16747 1 119.8800511 375.723200
16739 16738 16747 1 120.0200517 532.790560
16738 16739 16740 1 121.3800518 83.010560
16738 16739 16741 1 120.0200517 532.790560
16740 16739 16741 1 121.3800518 83.010560
601 16740 8459 1 109.50000 418.400000
601 16740 16739 1 103.70004 836.800000
601 16740 16749 1 109.50000 418.400000
8459 16740 16739 1 103.70004 836.800000
8459 16740 16749 1 109.50000 418.400000
16739 16740 16749 1 103.70004 1034.033760
16739 16741 16742 1 119.8800511 375.723200
16739 16741 16743 1 120.0200517 532.790560
16742 16741 16743 1 119.8800511 375.723200
16741 16743 16744 1 119.8800511 375.723200
16741 16743 16745 1 120.0200517 532.790560
16744 16743 16745 1 119.8800511 375.723200
16743 16745 16746 1 119.8800511 375.723200
16743 16745 16747 1 120.0200517 532.790560
16746 16745 16747 1 119.8800511 375.723200
16738 16747 16745 1 120.0200517 532.790560
16738 16747 16748 1 119.8800511 375.723200
16745 16747 16748 1 119.8800511 375.723200
16740 16749 16750 1 115.00000 209.200000
16751 16752 16753 1 119.8800511 375.723200
16751 16752 16761 1 119.8800511 375.723200
16753 16752 16761 1 120.0200517 532.790560
16752 16753 16754 1 121.3800518 83.010560
16752 16753 16755 1 120.0200517 532.790560
16754 16753 16755 1 121.3800518 83.010560
7980 16754 8501 1 109.50000 418.400000
7980 16754 16753 1 103.70004 836.800000
7980 16754 16763 1 109.50000 418.400000
8501 16754 16753 1 103.70004 836.800000
8501 16754 16763 1 109.50000 418.400000
16753 16754 16763 1 103.70004 1034.033760
16753 16755 16756 1 119.8800511 375.723200
16753 16755 16757 1 120.0200517 532.790560
16756 16755 16757 1 119.8800511 375.723200
16755 16757 16758 1 119.8800511 375.723200
16755 16757 16759 1 120.0200517 532.790560
16758 16757 16759 1 119.8800511 375.723200
16757 16759 16760 1 119.8800511 375.723200
16757 16759 16761 1 120.0200517 532.790560
16760 16759 16761 1 119.8800511 375.723200
16752 16761 16759 1 120.0200517 532.790560
16752 16761 16762 1 119.8800511 375.723200
16759 16761 16762 1 119.8800511 375.723200
16754 16763 16764 1 115.00000 209.200000
16765 16766 16767 1 119.8800511 375.723200
16765 16766 16775 1 119.8800511 375.723200
16767 16766 16775 1 120.0200517 532.790560
16766 16767 16768 1 121.3800518 83.010560
16766 16767 16769 1 120.0200517 532.790560
16768 16767 16769 1 121.3800518 83.010560
5258 16768 6199 1 109.50000 418.400000
5258 16768 16767 1 103.70004 836.800000
5258 16768 16777 1 109.50000 418.400000
6199 16768 16767 1 103.70004 836.800000
6199 16768 16777 1 109.50000 418.400000
16767 16768 16777 1 103.70004 1034.033760
16767 16769 16770 1 119.8800511 375.723200
16767 16769 16771 1 120.0200517 532.790560
16770 16769 16771 1 119.8800511 375.723200
16769 16771 16772 1 119.8800511 375.723200
16769 16771 16773 1 120.0200517 532.790560
16772 16771 16773 1 119.8800511 375.723200
16771 16773 16774 1 119.8800511 375.723200
16771 16773 16775 1 120.0200517 532.790560
16774 16773 16775 1 119.8800511 375.723200
16766 16775 16773 1 120.0200517 532.790560
16766 16775 16776 1 119.8800511 375.723200
16773 16775 16776 1 119.8800511 375.723200
16768 16777 16778 1 115.00000 209.200000
16779 16780 16781 1 119.8800511 375.723200
16779 16780 16789 1 119.8800511 375.723200
16781 16780 16789 1 120.0200517 532.790560
16780 16781 16782 1 121.3800518 83.010560
16780 16781 16783 1 120.0200517 532.790560
16782 16781 16783 1 121.3800518 83.010560
46 16782 5848 1 109.50000 418.400000
46 16782 16781 1 103.70004 836.800000
46 16782 16791 1 109.50000 418.400000
5848 16782 16781 1 103.70004 836.800000
5848 16782 16791 1 109.50000 418.400000
16781 16782 16791 1 103.70004 1034.033760
16781 16783 16784 1 119.8800511 375.723200
16781 16783 16785 1 120.0200517 532.790560
16784 16783 16785 1 119.8800511 375.723200
16783 16785 16786 1 119.8800511 375.723200
16783 16785 16787 1 120.0200517 532.790560
16786 16785 16787 1 119.8800511 375.723200
16785 16787 16788 1 119.8800511 375.723200
16785 16787 16789 1 120.0200517 532.790560
16788 16787 16789 1 119.8800511 375.723200
16780 16789 16787 1 120.0200517 532.790560
16780 16789 16790 1 119.8800511 375.723200
16787 16789 16790 1 119.8800511 375.723200
16782 16791 16792 1 115.00000 209.200000
16793 16794 16795 1 119.8800511 375.723200
16793 16794 16803 1 119.8800511 375.723200
16795 16794 16803 1 120.0200517 532.790560
16794 16795 16796 1 121.3800518 83.010560
16794 16795 16797 1 120.0200517 532.790560
16796 16795 16797 1 121.3800518 83.010560
21 16796 8550 1 109.50000 418.400000
21 16796 16795 1 103.70004 836.800000
21 16796 16805 1 109.50000 418.400000
8550 16796 16795 1 103.70004 836.800000
8550 16796 16805 1 109.50000 418.400000
16795 16796 16805 1 103.70004 1034.033760
16795 16797 16798 1 119.8800511 375.723200
16795 16797 16799 1 120.0200517 532.790560
16798 16797 16799 1 119.8800511 375.723200
16797 16799 16800 1 119.8800511 375.723200
16797 16799 16801 1 120.0200517 532.790560
16800 16799 16801 1 119.8800511 375.723200
16799 16801 16802 1 119.8800511 375.723200
16799 16801 16803 1 120.0200517 532.790560
16802 16801 16803 1 119.8800511 375.723200
16794 16803 16801 1 120.0200517 532.790560
16794 16803 16804 1 119.8800511 375.723200
16801 16803 16804 1 119.8800511 375.723200
16796 16805 16806 1 115.00000 209.200000
16807 16808 16809 1 119.8800511 375.723200
16807 16808 16817 1 119.8800511 375.723200
16809 16808 16817 1 120.0200517 532.790560
16808 16809 16810 1 121.3800518 83.010560
16808 16809 16811 1 120.0200517 532.790560
16810 16809 16811 1 121.3800518 83.010560
2733 16810 8562 1 109.50000 418.400000
2733 16810 16809 1 103.70004 836.800000
2733 16810 16819 1 109.50000 418.400000
8562 16810 16809 1 103.70004 836.800000
8562 16810 16819 1 109.50000 418.400000
16809 16810 16819 1 103.70004 1034.033760
16809 16811 16812 1 119.8800511 375.723200
16809 16811 16813 1 120.0200517 532.790560
16812 16811 16813 1 119.8800511 375.723200
16811 16813 16814 1 119.8800511 375.723200
16811 16813 16815 1 120.0200517 532.790560
16814 16813 16815 1 119.8800511 375.723200
16813 16815 16816 1 119.8800511 375.723200
16813 16815 16817 1 120.0200517 532.790560
16816 16815 16817 1 119.8800511 375.723200
16808 16817 16815 1 120.0200517 532.790560
16808 16817 16818 1 119.8800511 375.723200
16815 16817 16818 1 119.8800511 375.723200
16810 16819 16820 1 115.00000 209.200000
16821 16822 16823 1 119.8800511 375.723200
16821 16822 16831 1 119.8800511 375.723200
16823 16822 16831 1 120.0200517 532.790560
16822 16823 16824 1 121.3800518 83.010560
16822 16823 16825 1 120.0200517 532.790560
16824 16823 16825 1 121.3800518 83.010560
8617 16824 8618 1 109.50000 418.400000
8617 16824 16823 1 103.70004 836.800000
8617 16824 16833 1 109.50000 418.400000
8618 16824 16823 1 103.70004 836.800000
8618 16824 16833 1 109.50000 418.400000
16823 16824 16833 1 103.70004 1034.033760
16823 16825 16826 1 119.8800511 375.723200
16823 16825 16827 1 120.0200517 532.790560
16826 16825 16827 1 119.8800511 375.723200
16825 16827 16828 1 119.8800511 375.723200
16825 16827 16829 1 120.0200517 532.790560
16828 16827 16829 1 119.8800511 375.723200
16827 16829 16830 1 119.8800511 375.723200
16827 16829 16831 1 120.0200517 532.790560
16830 16829 16831 1 119.8800511 375.723200
16822 16831 16829 1 120.0200517 532.790560
16822 16831 16832 1 119.8800511 375.723200
16829 16831 16832 1 119.8800511 375.723200
16824 16833 16834 1 115.00000 209.200000
16835 16836 16837 1 119.8800511 375.723200
16835 16836 16845 1 119.8800511 375.723200
16837 16836 16845 1 120.0200517 532.790560
16836 16837 16838 1 121.3800518 83.010560
16836 16837 16839 1 120.0200517 532.790560
16838 16837 16839 1 121.3800518 83.010560
4281 16838 8621 1 109.50000 418.400000
4281 16838 16837 1 103.70004 836.800000
4281 16838 16847 1 109.50000 418.400000
8621 16838 16837 1 103.70004 836.800000
8621 16838 16847 1 109.50000 418.400000
16837 16838 16847 1 103.70004 1034.033760
16837 16839 16840 1 119.8800511 375.723200
16837 16839 16841 1 120.0200517 532.790560
16840 16839 16841 1 119.8800511 375.723200
16839 16841 16842 1 119.8800511 375.723200
16839 16841 16843 1 120.0200517 532.790560
16842 16841 16843 1 119.8800511 375.723200
16841 16843 16844 1 119.8800511 375.723200
16841 16843 16845 1 120.0200517 532.790560
16844 16843 16845 1 119.8800511 375.723200
16836 16845 16843 1 120.0200517 532.790560
16836 16845 16846 1 119.8800511 375.723200
16843 16845 16846 1 119.8800511 375.723200
16838 16847 16848 1 115.00000 209.200000
16849 16850 16851 1 119.8800511 375.723200
16849 16850 16859 1 119.8800511 375.723200
16851 16850 16859 1 120.0200517 532.790560
16850 16851 16852 1 121.3800518 83.010560
16850 16851 16853 1 120.0200517 532.790560
16852 16851 16853 1 121.3800518 83.010560
1772 16852 7302 1 109.50000 418.400000
1772 16852 16851 1 103.70004 836.800000
1772 16852 16861 1 109.50000 418.400000
7302 16852 16851 1 103.70004 836.800000
7302 16852 16861 1 109.50000 418.400000
16851 16852 16861 1 103.70004 1034.033760
16851 16853 16854 1 119.8800511 375.723200
16851 16853 16855 1 120.0200517 532.790560
16854 16853 16855 1 119.8800511 375.723200
16853 16855 16856 1 119.8800511 375.723200
16853 16855 16857 1 120.0200517 532.790560
16856 16855 16857 1 119.8800511 375.723200
16855 16857 16858 1 119.8800511 375.723200
16855 16857 16859 1 120.0200517 532.790560
16858 16857 16859 1 119.8800511 375.723200
16850 16859 16857 1 120.0200517 532.790560
16850 16859 16860 1 119.8800511 375.723200
16857 16859 16860 1 119.8800511 375.723200
16852 16861 16862 1 115.00000 209.200000
16863 16864 16865 1 119.8800511 375.723200
16863 16864 16873 1 119.8800511 375.723200
16865 16864 16873 1 120.0200517 532.790560
16864 16865 16866 1 121.3800518 83.010560
16864 16865 16867 1 120.0200517 532.790560
16866 16865 16867 1 121.3800518 83.010560
1686 16866 8093 1 109.50000 418.400000
1686 16866 16865 1 103.70004 836.800000
1686 16866 16875 1 109.50000 418.400000
8093 16866 16865 1 103.70004 836.800000
8093 16866 16875 1 109.50000 418.400000
16865 16866 16875 1 103.70004 1034.033760
16865 16867 16868 1 119.8800511 375.723200
16865 16867 16869 1 120.0200517 532.790560
16868 16867 16869 1 119.8800511 375.723200
16867 16869 16870 1 119.8800511 375.723200
16867 16869 16871 1 120.0200517 532.790560
16870 16869 16871 1 119.8800511 375.723200
16869 16871 16872 1 119.8800511 375.723200
16869 16871 16873 1 120.0200517 532.790560
16872 16871 16873 1 119.8800511 375.723200
16864 16873 16871 1 120.0200517 532.790560
16864 16873 16874 1 119.8800511 375.723200
16871 16873 16874 1 119.8800511 375.723200
16866 16875 16876 1 115.00000 209.200000
16877 16878 16879 1 119.8800511 375.723200
16877 16878 16887 1 119.8800511 375.723200
16879 16878 16887 1 120.0200517 532.790560
16878 16879 16880 1 121.3800518 83.010560
16878 16879 16881 1 120.0200517 532.790560
16880 16879 16881 1 121.3800518 83.010560
5182 16880 8821 1 109.50000 418.400000
5182 16880 16879 1 103.70004 836.800000
5182 16880 16889 1 109.50000 418.400000
8821 16880 16879 1 103.70004 836.800000
8821 16880 16889 1 109.50000 418.400000
16879 16880 16889 1 103.70004 1034.033760
16879 16881 16882 1 119.8800511 375.723200
16879 16881 16883 1 120.0200517 532.790560
16882 16881 16883 1 119.8800511 375.723200
16881 16883 16884 1 119.8800511 375.723200
16881 16883 16885 1 120.0200517 532.790560
16884 16883 16885 1 119.8800511 375.723200
16883 16885 16886 1 119.8800511 375.723200
16883 16885 16887 1 120.0200517 532.790560
16886 16885 16887 1 119.8800511 375.723200
16878 16887 16885 1 120.0200517 532.790560
16878 16887 16888 1 119.8800511 375.723200
16885 16887 16888 1 119.8800511 375.723200
16880 16889 16890 1 115.00000 209.200000
16891 16892 16893 1 119.8800511 375.723200
16891 16892 16901 1 119.8800511 375.723200
16893 16892 16901 1 120.0200517 532.790560
16892 16893 16894 1 121.3800518 83.010560
16892 16893 16895 1 120.0200517 532.790560
16894 16893 16895 1 121.3800518 83.010560
7286 16894 8822 1 109.50000 418.400000
7286 16894 16893 1 103.70004 836.800000
7286 16894 16903 1 109.50000 418.400000
8822 16894 16893 1 103.70004 836.800000
8822 16894 16903 1 109.50000 418.400000
16893 16894 16903 1 103.70004 1034.033760
16893 16895 16896 1 119.8800511 375.723200
16893 16895 16897 1 120.0200517 532.790560
16896 16895 16897 1 119.8800511 375.723200
16895 16897 16898 1 119.8800511 375.723200
16895 16897 16899 1 120.0200517 532.790560
16898 16897 16899 1 119.8800511 375.723200
16897 16899 16900 1 119.8800511 375.723200
16897 16899 16901 1 120.0200517 532.790560
16900 16899 16901 1 119.8800511 375.723200
16892 16901 16899 1 120.0200517 532.790560
16892 16901 16902 1 119.8800511 375.723200
16899 16901 16902 1 119.8800511 375.723200
16894 16903 16904 1 115.00000 209.200000
16905 16906 16907 1 119.8800511 375.723200
16905 16906 16915 1 119.8800511 375.723200
16907 16906 16915 1 120.0200517 532.790560
16906 16907 16908 1 121.3800518 83.010560
16906 16907 16909 1 120.0200517 532.790560
16908 16907 16909 1 121.3800518 83.010560
2605 16908 4304 1 109.50000 418.400000
2605 16908 16907 1 103.70004 836.800000
2605 16908 16917 1 109.50000 418.400000
4304 16908 16907 1 103.70004 836.800000
4304 16908 16917 1 109.50000 418.400000
16907 16908 16917 1 103.70004 1034.033760
16907 16909 16910 1 119.8800511 375.723200
16907 16909 16911 1 120.0200517 532.790560
16910 16909 16911 1 119.8800511 375.723200
16909 16911 16912 1 119.8800511 375.723200
16909 16911 16913 1 120.0200517 532.790560
16912 16911 16913 1 119.8800511 375.723200
16911 16913 16914 1 119.8800511 375.723200
16911 16913 16915 1 120.0200517 532.790560
16914 16913 16915 1 119.8800511 375.723200
16906 16915 16913 1 120.0200517 532.790560
16906 16915 16916 1 119.8800511 375.723200
16913 16915 16916 1 119.8800511 375.723200
16908 16917 16918 1 115.00000 209.200000
16919 16920 16921 1 119.8800511 375.723200
16919 16920 16929 1 119.8800511 375.723200
16921 16920 16929 1 120.0200517 532.790560
16920 16921 16922 1 121.3800518 83.010560
16920 16921 16923 1 120.0200517 532.790560
16922 16921 16923 1 121.3800518 83.010560
4419 16922 4577 1 109.50000 418.400000
4419 16922 16921 1 103.70004 836.800000
4419 16922 16931 1 109.50000 418.400000
4577 16922 16921 1 103.70004 836.800000
4577 16922 16931 1 109.50000 418.400000
16921 16922 16931 1 103.70004 1034.033760
16921 16923 16924 1 119.8800511 375.723200
16921 16923 16925 1 120.0200517 532.790560
16924 16923 16925 1 119.8800511 375.723200
16923 16925 16926 1 119.8800511 375.723200
16923 16925 16927 1 120.0200517 532.790560
16926 16925 16927 1 119.8800511 375.723200
16925 16927 16928 1 119.8800511 375.723200
16925 16927 16929 1 120.0200517 532.790560
16928 16927 16929 1 119.8800511 375.723200
16920 16929 16927 1 120.0200517 532.790560
16920 16929 16930 1 119.8800511 375.723200
16927 16929 16930 1 119.8800511 375.723200
16922 16931 16932 1 115.00000 209.200000
16933 16934 16935 1 119.8800511 375.723200
16933 16934 16943 1 119.8800511 375.723200
16935 16934 16943 1 120.0200517 532.790560
16934 16935 16936 1 121.3800518 83.010560
16934 16935 16937 1 120.0200517 532.790560
16936 16935 16937 1 121.3800518 83.010560
8045 16936 8851 1 109.50000 418.400000
8045 16936 16935 1 103.70004 836.800000
8045 16936 16945 1 109.50000 418.400000
8851 16936 16935 1 103.70004 836.800000
8851 16936 16945 1 109.50000 418.400000
16935 16936 16945 1 103.70004 1034.033760
16935 16937 16938 1 119.8800511 375.723200
16935 16937 16939 1 120.0200517 532.790560
16938 16937 16939 1 119.8800511 375.723200
16937 16939 16940 1 119.8800511 375.723200
16937 16939 16941 1 120.0200517 532.790560
16940 16939 16941 1 119.8800511 375.723200
16939 16941 16942 1 119.8800511 375.723200
16939 16941 16943 1 120.0200517 532.790560
16942 16941 16943 1 119.8800511 375.723200
16934 16943 16941 1 120.0200517 532.790560
16934 16943 16944 1 119.8800511 375.723200
16941 16943 16944 1 119.8800511 375.723200
16936 16945 16946 1 115.00000 209.200000
16947 16948 16949 1 119.8800511 375.723200
16947 16948 16957 1 119.8800511 375.723200
16949 16948 16957 1 120.0200517 532.790560
16948 16949 16950 1 121.3800518 83.010560
16948 16949 16951 1 120.0200517 532.790560
16950 16949 16951 1 121.3800518 83.010560
4701 16950 7064 1 109.50000 418.400000
4701 16950 16949 1 103.70004 836.800000
4701 16950 16959 1 109.50000 418.400000
7064 16950 16949 1 103.70004 836.800000
7064 16950 16959 1 109.50000 418.400000
16949 16950 16959 1 103.70004 1034.033760
16949 16951 16952 1 119.8800511 375.723200
16949 16951 16953 1 120.0200517 532.790560
16952 16951 16953 1 119.8800511 375.723200
16951 16953 16954 1 119.8800511 375.723200
16951 16953 16955 1 120.0200517 532.790560
16954 16953 16955 1 119.8800511 375.723200
16953 16955 16956 1 119.8800511 375.723200
16953 16955 16957 1 120.0200517 532.790560
16956 16955 16957 1 119.8800511 375.723200
16948 16957 16955 1 120.0200517 532.790560
16948 16957 16958 1 119.8800511 375.723200
16955 16957 16958 1 119.8800511 375.723200
16950 16959 16960 1 115.00000 209.200000
16961 16962 16963 1 119.8800511 375.723200
16961 16962 16971 1 119.8800511 375.723200
16963 16962 16971 1 120.0200517 532.790560
16962 16963 16964 1 121.3800518 83.010560
16962 16963 16965 1 120.0200517 532.790560
16964 16963 16965 1 121.3800518 83.010560
8866 16964 8867 1 109.50000 418.400000
8866 16964 16963 1 103.70004 836.800000
8866 16964 16973 1 109.50000 418.400000
8867 16964 16963 1 103.70004 836.800000
8867 16964 16973 1 109.50000 418.400000
16963 16964 16973 1 103.70004 1034.033760
16963 16965 16966 1 119.8800511 375.723200
16963 16965 16967 1 120.0200517 532.790560
16966 16965 16967 1 119.8800511 375.723200
16965 16967 16968 1 119.8800511 375.723200
16965 16967 16969 1 120.0200517 532.790560
16968 16967 16969 1 119.8800511 375.723200
16967 16969 16970 1 119.8800511 375.723200
16967 16969 16971 1 120.0200517 532.790560
16970 16969 16971 1 119.8800511 375.723200
16962 16971 16969 1 120.0200517 532.790560
16962 16971 16972 1 119.8800511 375.723200
16969 16971 16972 1 119.8800511 375.723200
16964 16973 16974 1 115.00000 209.200000
16975 16976 16977 1 119.8800511 375.723200
16975 16976 16985 1 119.8800511 375.723200
16977 16976 16985 1 120.0200517 532.790560
16976 16977 16978 1 121.3800518 83.010560
16976 16977 16979 1 120.0200517 532.790560
16978 16977 16979 1 121.3800518 83.010560
2246 16978 7770 1 109.50000 418.400000
2246 16978 16977 1 103.70004 836.800000
2246 16978 16987 1 109.50000 418.400000
7770 16978 16977 1 103.70004 836.800000
7770 16978 16987 1 109.50000 418.400000
16977 16978 16987 1 103.70004 1034.033760
16977 16979 16980 1 119.8800511 375.723200
16977 16979 16981 1 120.0200517 532.790560
16980 16979 16981 1 119.8800511 375.723200
16979 16981 16982 1 119.8800511 375.723200
16979 16981 16983 1 120.0200517 532.790560
16982 16981 16983 1 119.8800511 375.723200
16981 16983 16984 1 119.8800511 375.723200
16981 16983 16985 1 120.0200517 532.790560
16984 16983 16985 1 119.8800511 375.723200
16976 16985 16983 1 120.0200517 532.790560
16976 16985 16986 1 119.8800511 375.723200
16983 16985 16986 1 119.8800511 375.723200
16978 16987 16988 1 115.00000 209.200000
16989 16990 16991 1 119.8800511 375.723200
16989 16990 16999 1 119.8800511 375.723200
16991 16990 16999 1 120.0200517 532.790560
16990 16991 16992 1 121.3800518 83.010560
16990 16991 16993 1 120.0200517 532.790560
16992 16991 16993 1 121.3800518 83.010560
61 16992 8916 1 109.50000 418.400000
61 16992 16991 1 103.70004 836.800000
61 16992 17001 1 109.50000 418.400000
8916 16992 16991 1 103.70004 836.800000
8916 16992 17001 1 109.50000 418.400000
16991 16992 17001 1 103.70004 1034.033760
16991 16993 16994 1 119.8800511 375.723200
16991 16993 16995 1 120.0200517 532.790560
16994 16993 16995 1 119.8800511 375.723200
16993 16995 16996 1 119.8800511 375.723200
16993 16995 16997 1 120.0200517 532.790560
16996 16995 16997 1 119.8800511 375.723200
16995 16997 16998 1 119.8800511 375.723200
16995 16997 16999 1 120.0200517 532.790560
16998 16997 16999 1 119.8800511 375.723200
16990 16999 16997 1 120.0200517 532.790560
16990 16999 17000 1 119.8800511 375.723200
16997 16999 17000 1 119.8800511 375.723200
16992 17001 17002 1 115.00000 209.200000
17003 17004 17005 1 119.8800511 375.723200
17003 17004 17013 1 119.8800511 375.723200
17005 17004 17013 1 120.0200517 532.790560
17004 17005 17006 1 121.3800518 83.010560
17004 17005 17007 1 120.0200517 532.790560
17006 17005 17007 1 121.3800518 83.010560
5054 17006 8928 1 109.50000 418.400000
5054 17006 17005 1 103.70004 836.800000
5054 17006 17015 1 109.50000 418.400000
8928 17006 17005 1 103.70004 836.800000
8928 17006 17015 1 109.50000 418.400000
17005 17006 17015 1 103.70004 1034.033760
17005 17007 17008 1 119.8800511 375.723200
17005 17007 17009 1 120.0200517 532.790560
17008 17007 17009 1 119.8800511 375.723200
17007 17009 17010 1 119.8800511 375.723200
17007 17009 17011 1 120.0200517 532.790560
17010 17009 17011 1 119.8800511 375.723200
17009 17011 17012 1 119.8800511 375.723200
17009 17011 17013 1 120.0200517 532.790560
17012 17011 17013 1 119.8800511 375.723200
17004 17013 17011 1 120.0200517 532.790560
17004 17013 17014 1 119.8800511 375.723200
17011 17013 17014 1 119.8800511 375.723200
17006 17015 17016 1 115.00000 209.200000
17017 17018 17019 1 119.8800511 375.723200
17017 17018 17027 1 119.8800511 375.723200
17019 17018 17027 1 120.0200517 532.790560
17018 17019 17020 1 121.3800518 83.010560
17018 17019 17021 1 120.0200517 532.790560
17020 17019 17021 1 121.3800518 83.010560
8962 17020 9672 1 109.50000 418.400000
8962 17020 17019 1 103.70004 836.800000
8962 17020 17029 1 109.50000 418.400000
9672 17020 17019 1 103.70004 836.800000
9672 17020 17029 1 109.50000 418.400000
17019 17020 17029 1 103.70004 1034.033760
17019 17021 17022 1 119.8800511 375.723200
17019 17021 17023 1 120.0200517 532.790560
17022 17021 17023 1 119.8800511 375.723200
17021 17023 17024 1 119.8800511 375.723200
17021 17023 17025 1 120.0200517 532.790560
17024 17023 17025 1 119.8800511 375.723200
17023 17025 17026 1 119.8800511 375.723200
17023 17025 17027 1 120.0200517 532.790560
17026 17025 17027 1 119.8800511 375.723200
17018 17027 17025 1 120.0200517 532.790560
17018 17027 17028 1 119.8800511 375.723200
17025 17027 17028 1 119.8800511 375.723200
17020 17029 17030 1 115.00000 209.200000
17031 17032 17033 1 119.8800511 375.723200
17031 17032 17041 1 119.8800511 375.723200
17033 17032 17041 1 120.0200517 532.790560
17032 17033 17034 1 121.3800518 83.010560
17032 17033 17035 1 120.0200517 532.790560
17034 17033 17035 1 121.3800518 83.010560
4172 17034 8974 1 109.50000 418.400000
4172 17034 17033 1 103.70004 836.800000
4172 17034 17043 1 109.50000 418.400000
8974 17034 17033 1 103.70004 836.800000
8974 17034 17043 1 109.50000 418.400000
17033 17034 17043 1 103.70004 1034.033760
17033 17035 17036 1 119.8800511 375.723200
17033 17035 17037 1 120.0200517 532.790560
17036 17035 17037 1 119.8800511 375.723200
17035 17037 17038 1 119.8800511 375.723200
17035 17037 17039 1 120.0200517 532.790560
17038 17037 17039 1 119.8800511 375.723200
17037 17039 17040 1 119.8800511 375.723200
17037 17039 17041 1 120.0200517 532.790560
17040 17039 17041 1 119.8800511 375.723200
17032 17041 17039 1 120.0200517 532.790560
17032 17041 17042 1 119.8800511 375.723200
17039 17041 17042 1 119.8800511 375.723200
17034 17043 17044 1 115.00000 209.200000
17045 17046 17047 1 119.8800511 375.723200
17045 17046 17055 1 119.8800511 375.723200
17047 17046 17055 1 120.0200517 532.790560
17046 17047 17048 1 121.3800518 83.010560
17046 17047 17049 1 120.0200517 532.790560
17048 17047 17049 1 121.3800518 83.010560
8289 17048 9035 1 109.50000 418.400000
8289 17048 17047 1 103.70004 836.800000
8289 17048 17057 1 109.50000 418.400000
9035 17048 17047 1 103.70004 836.800000
9035 17048 17057 1 109.50000 418.400000
17047 17048 17057 1 103.70004 1034.033760
17047 17049 17050 1 119.8800511 375.723200
17047 17049 17051 1 120.0200517 532.790560
17050 17049 17051 1 119.8800511 375.723200
17049 17051 17052 1 119.8800511 375.723200
17049 17051 17053 1 120.0200517 532.790560
17052 17051 17053 1 119.8800511 375.723200
17051 17053 17054 1 119.8800511 375.723200
17051 17053 17055 1 120.0200517 532.790560
17054 17053 17055 1 119.8800511 375.723200
17046 17055 17053 1 120.0200517 532.790560
17046 17055 17056 1 119.8800511 375.723200
17053 17055 17056 1 119.8800511 375.723200
17048 17057 17058 1 115.00000 209.200000
17059 17060 17061 1 119.8800511 375.723200
17059 17060 17069 1 119.8800511 375.723200
17061 17060 17069 1 120.0200517 532.790560
17060 17061 17062 1 121.3800518 83.010560
17060 17061 17063 1 120.0200517 532.790560
17062 17061 17063 1 121.3800518 83.010560
5133 17062 9067 1 109.50000 418.400000
5133 17062 17061 1 103.70004 836.800000
5133 17062 17071 1 109.50000 418.400000
9067 17062 17061 1 103.70004 836.800000
9067 17062 17071 1 109.50000 418.400000
17061 17062 17071 1 103.70004 1034.033760
17061 17063 17064 1 119.8800511 375.723200
17061 17063 17065 1 120.0200517 532.790560
17064 17063 17065 1 119.8800511 375.723200
17063 17065 17066 1 119.8800511 375.723200
17063 17065 17067 1 120.0200517 532.790560
17066 17065 17067 1 119.8800511 375.723200
17065 17067 17068 1 119.8800511 375.723200
17065 17067 17069 1 120.0200517 532.790560
17068 17067 17069 1 119.8800511 375.723200
17060 17069 17067 1 120.0200517 532.790560
17060 17069 17070 1 119.8800511 375.723200
17067 17069 17070 1 119.8800511 375.723200
17062 17071 17072 1 115.00000 209.200000
17073 17074 17075 1 119.8800511 375.723200
17073 17074 17083 1 119.8800511 375.723200
17075 17074 17083 1 120.0200517 532.790560
17074 17075 17076 1 121.3800518 83.010560
17074 17075 17077 1 120.0200517 532.790560
17076 17075 17077 1 121.3800518 83.010560
8173 17076 9098 1 109.50000 418.400000
8173 17076 17075 1 103.70004 836.800000
8173 17076 17085 1 109.50000 418.400000
9098 17076 17075 1 103.70004 836.800000
9098 17076 17085 1 109.50000 418.400000
17075 17076 17085 1 103.70004 1034.033760
17075 17077 17078 1 119.8800511 375.723200
17075 17077 17079 1 120.0200517 532.790560
17078 17077 17079 1 119.8800511 375.723200
17077 17079 17080 1 119.8800511 375.723200
17077 17079 17081 1 120.0200517 532.790560
17080 17079 17081 1 119.8800511 375.723200
17079 17081 17082 1 119.8800511 375.723200
17079 17081 17083 1 120.0200517 532.790560
17082 17081 17083 1 119.8800511 375.723200
17074 17083 17081 1 120.0200517 532.790560
17074 17083 17084 1 119.8800511 375.723200
17081 17083 17084 1 119.8800511 375.723200
17076 17085 17086 1 115.00000 209.200000
17087 17088 17089 1 119.8800511 375.723200
17087 17088 17097 1 119.8800511 375.723200
17089 17088 17097 1 120.0200517 532.790560
17088 17089 17090 1 121.3800518 83.010560
17088 17089 17091 1 120.0200517 532.790560
17090 17089 17091 1 121.3800518 83.010560
3540 17090 9193 1 109.50000 418.400000
3540 17090 17089 1 103.70004 836.800000
3540 17090 17099 1 109.50000 418.400000
9193 17090 17089 1 103.70004 836.800000
9193 17090 17099 1 109.50000 418.400000
17089 17090 17099 1 103.70004 1034.033760
17089 17091 17092 1 119.8800511 375.723200
17089 17091 17093 1 120.0200517 532.790560
17092 17091 17093 1 119.8800511 375.723200
17091 17093 17094 1 119.8800511 375.723200
17091 17093 17095 1 120.0200517 532.790560
17094 17093 17095 1 119.8800511 375.723200
17093 17095 17096 1 119.8800511 375.723200
17093 17095 17097 1 120.0200517 532.790560
17096 17095 17097 1 119.8800511 375.723200
17088 17097 17095 1 120.0200517 532.790560
17088 17097 17098 1 119.8800511 375.723200
17095 17097 17098 1 119.8800511 375.723200
17090 17099 17100 1 115.00000 209.200000
17101 17102 17103 1 119.8800511 375.723200
17101 17102 17111 1 119.8800511 375.723200
17103 17102 17111 1 120.0200517 532.790560
17102 17103 17104 1 121.3800518 83.010560
17102 17103 17105 1 120.0200517 532.790560
17104 17103 17105 1 121.3800518 83.010560
598 17104 9194 1 109.50000 418.400000
598 17104 17103 1 103.70004 836.800000
598 17104 17113 1 109.50000 418.400000
9194 17104 17103 1 103.70004 836.800000
9194 17104 17113 1 109.50000 418.400000
17103 17104 17113 1 103.70004 1034.033760
17103 17105 17106 1 119.8800511 375.723200
17103 17105 17107 1 120.0200517 532.790560
17106 17105 17107 1 119.8800511 375.723200
17105 17107 17108 1 119.8800511 375.723200
17105 17107 17109 1 120.0200517 532.790560
17108 17107 17109 1 119.8800511 375.723200
17107 17109 17110 1 119.8800511 375.723200
17107 17109 17111 1 120.0200517 532.790560
17110 17109 17111 1 119.8800511 375.723200
17102 17111 17109 1 120.0200517 532.790560
17102 17111 17112 1 119.8800511 375.723200
17109 17111 17112 1 119.8800511 375.723200
17104 17113 17114 1 115.00000 209.200000
17115 17116 17117 1 119.8800511 375.723200
17115 17116 17125 1 119.8800511 375.723200
17117 17116 17125 1 120.0200517 532.790560
17116 17117 17118 1 121.3800518 83.010560
17116 17117 17119 1 120.0200517 532.790560
17118 17117 17119 1 121.3800518 83.010560
1034 17118 4378 1 109.50000 418.400000
1034 17118 17117 1 103.70004 836.800000
1034 17118 17127 1 109.50000 418.400000
4378 17118 17117 1 103.70004 836.800000
4378 17118 17127 1 109.50000 418.400000
17117 17118 17127 1 103.70004 1034.033760
17117 17119 17120 1 119.8800511 375.723200
17117 17119 17121 1 120.0200517 532.790560
17120 17119 17121 1 119.8800511 375.723200
17119 17121 17122 1 119.8800511 375.723200
17119 17121 17123 1 120.0200517 532.790560
17122 17121 17123 1 119.8800511 375.723200
17121 17123 17124 1 119.8800511 375.723200
17121 17123 17125 1 120.0200517 532.790560
17124 17123 17125 1 119.8800511 375.723200
17116 17125 17123 1 120.0200517 532.790560
17116 17125 17126 1 119.8800511 375.723200
17123 17125 17126 1 119.8800511 375.723200
17118 17127 17128 1 115.00000 209.200000
17129 17130 17131 1 119.8800511 375.723200
17129 17130 17139 1 119.8800511 375.723200
17131 17130 17139 1 120.0200517 532.790560
17130 17131 17132 1 121.3800518 83.010560
17130 17131 17133 1 120.0200517 532.790560
17132 17131 17133 1 121.3800518 83.010560
306 17132 8635 1 109.50000 418.400000
306 17132 17131 1 103.70004 836.800000
306 17132 17141 1 109.50000 418.400000
8635 17132 17131 1 103.70004 836.800000
8635 17132 17141 1 109.50000 418.400000
17131 17132 17141 1 103.70004 1034.033760
17131 17133 17134 1 119.8800511 375.723200
17131 17133 17135 1 120.0200517 532.790560
17134 17133 17135 1 119.8800511 375.723200
17133 17135 17136 1 119.8800511 375.723200
17133 17135 17137 1 120.0200517 532.790560
17136 17135 17137 1 119.8800511 375.723200
17135 17137 17138 1 119.8800511 375.723200
17135 17137 17139 1 120.0200517 532.790560
17138 17137 17139 1 119.8800511 375.723200
17130 17139 17137 1 120.0200517 532.790560
17130 17139 17140 1 119.8800511 375.723200
17137 17139 17140 1 119.8800511 375.723200
17132 17141 17142 1 115.00000 209.200000
17143 17144 17145 1 119.8800511 375.723200
17143 17144 17153 1 119.8800511 375.723200
17145 17144 17153 1 120.0200517 532.790560
17144 17145 17146 1 121.3800518 83.010560
17144 17145 17147 1 120.0200517 532.790560
17146 17145 17147 1 121.3800518 83.010560
9263 17146 9264 1 109.50000 418.400000
9263 17146 17145 1 103.70004 836.800000
9263 17146 17155 1 109.50000 418.400000
9264 17146 17145 1 103.70004 836.800000
9264 17146 17155 1 109.50000 418.400000
17145 17146 17155 1 103.70004 1034.033760
17145 17147 17148 1 119.8800511 375.723200
17145 17147 17149 1 120.0200517 532.790560
17148 17147 17149 1 119.8800511 375.723200
17147 17149 17150 1 119.8800511 375.723200
17147 17149 17151 1 120.0200517 532.790560
17150 17149 17151 1 119.8800511 375.723200
17149 17151 17152 1 119.8800511 375.723200
17149 17151 17153 1 120.0200517 532.790560
17152 17151 17153 1 119.8800511 375.723200
17144 17153 17151 1 120.0200517 532.790560
17144 17153 17154 1 119.8800511 375.723200
17151 17153 17154 1 119.8800511 375.723200
17146 17155 17156 1 115.00000 209.200000
17157 17158 17159 1 119.8800511 375.723200
17157 17158 17167 1 119.8800511 375.723200
17159 17158 17167 1 120.0200517 532.790560
17158 17159 17160 1 121.3800518 83.010560
17158 17159 17161 1 120.0200517 532.790560
17160 17159 17161 1 121.3800518 83.010560
5069 17160 7625 1 109.50000 418.400000
5069 17160 17159 1 103.70004 836.800000
5069 17160 17169 1 109.50000 418.400000
7625 17160 17159 1 103.70004 836.800000
7625 17160 17169 1 109.50000 418.400000
17159 17160 17169 1 103.70004 1034.033760
17159 17161 17162 1 119.8800511 375.723200
17159 17161 17163 1 120.0200517 532.790560
17162 17161 17163 1 119.8800511 375.723200
17161 17163 17164 1 119.8800511 375.723200
17161 17163 17165 1 120.0200517 532.790560
17164 17163 17165 1 119.8800511 375.723200
17163 17165 17166 1 119.8800511 375.723200
17163 17165 17167 1 120.0200517 532.790560
17166 17165 17167 1 119.8800511 375.723200
17158 17167 17165 1 120.0200517 532.790560
17158 17167 17168 1 119.8800511 375.723200
17165 17167 17168 1 119.8800511 375.723200
17160 17169 17170 1 115.00000 209.200000
17171 17172 17173 1 119.8800511 375.723200
17171 17172 17181 1 119.8800511 375.723200
17173 17172 17181 1 120.0200517 532.790560
17172 17173 17174 1 121.3800518 83.010560
17172 17173 17175 1 120.0200517 532.790560
17174 17173 17175 1 121.3800518 83.010560
1207 17174 3332 1 109.50000 418.400000
1207 17174 17173 1 103.70004 836.800000
1207 17174 17183 1 109.50000 418.400000
3332 17174 17173 1 103.70004 836.800000
3332 17174 17183 1 109.50000 418.400000
17173 17174 17183 1 103.70004 1034.033760
17173 17175 17176 1 119.8800511 375.723200
17173 17175 17177 1 120.0200517 532.790560
17176 17175 17177 1 119.8800511 375.723200
17175 17177 17178 1 119.8800511 375.723200
17175 17177 17179 1 120.0200517 532.790560
17178 17177 17179 1 119.8800511 375.723200
17177 17179 17180 1 119.8800511 375.723200
17177 17179 17181 1 120.0200517 532.790560
17180 17179 17181 1 119.8800511 375.723200
17172 17181 17179 1 120.0200517 532.790560
17172 17181 17182 1 119.8800511 375.723200
17179 17181 17182 1 119.8800511 375.723200
17174 17183 17184 1 115.00000 209.200000
17185 17186 17187 1 119.8800511 375.723200
17185 17186 17195 1 119.8800511 375.723200
17187 17186 17195 1 120.0200517 532.790560
17186 17187 17188 1 121.3800518 83.010560
17186 17187 17189 1 120.0200517 532.790560
17188 17187 17189 1 121.3800518 83.010560
2298 17188 9090 1 109.50000 418.400000
2298 17188 17187 1 103.70004 836.800000
2298 17188 17197 1 109.50000 418.400000
9090 17188 17187 1 103.70004 836.800000
9090 17188 17197 1 109.50000 418.400000
17187 17188 17197 1 103.70004 1034.033760
17187 17189 17190 1 119.8800511 375.723200
17187 17189 17191 1 120.0200517 532.790560
17190 17189 17191 1 119.8800511 375.723200
17189 17191 17192 1 119.8800511 375.723200
17189 17191 17193 1 120.0200517 532.790560
17192 17191 17193 1 119.8800511 375.723200
17191 17193 17194 1 119.8800511 375.723200
17191 17193 17195 1 120.0200517 532.790560
17194 17193 17195 1 119.8800511 375.723200
17186 17195 17193 1 120.0200517 532.790560
17186 17195 17196 1 119.8800511 375.723200
17193 17195 17196 1 119.8800511 375.723200
17188 17197 17198 1 115.00000 209.200000
17199 17200 17201 1 119.8800511 375.723200
17199 17200 17209 1 119.8800511 375.723200
17201 17200 17209 1 120.0200517 532.790560
17200 17201 17202 1 121.3800518 83.010560
17200 17201 17203 1 120.0200517 532.790560
17202 17201 17203 1 121.3800518 83.010560
442 17202 5141 1 109.50000 418.400000
442 17202 17201 1 103.70004 836.800000
442 17202 17211 1 109.50000 418.400000
5141 17202 17201 1 103.70004 836.800000
5141 17202 17211 1 109.50000 418.400000
17201 17202 17211 1 103.70004 1034.033760
17201 17203 17204 1 119.8800511 375.723200
17201 17203 17205 1 120.0200517 532.790560
17204 17203 17205 1 119.8800511 375.723200
17203 17205 17206 1 119.8800511 375.723200
17203 17205 17207 1 120.0200517 532.790560
17206 17205 17207 1 119.8800511 375.723200
17205 17207 17208 1 119.8800511 375.723200
17205 17207 17209 1 120.0200517 532.790560
17208 17207 17209 1 119.8800511 375.723200
17200 17209 17207 1 120.0200517 532.790560
17200 17209 17210 1 119.8800511 375.723200
17207 17209 17210 1 119.8800511 375.723200
17202 17211 17212 1 115.00000 209.200000
17213 17214 17215 1 119.8800511 375.723200
17213 17214 17223 1 119.8800511 375.723200
17215 17214 17223 1 120.0200517 532.790560
17214 17215 17216 1 121.3800518 83.010560
17214 17215 17217 1 120.0200517 532.790560
17216 17215 17217 1 121.3800518 83.010560
4102 17216 9375 1 109.50000 418.400000
4102 17216 17215 1 103.70004 836.800000
4102 17216 17225 1 109.50000 418.400000
9375 17216 17215 1 103.70004 836.800000
9375 17216 17225 1 109.50000 418.400000
17215 17216 17225 1 103.70004 1034.033760
17215 17217 17218 1 119.8800511 375.723200
17215 17217 17219 1 120.0200517 532.790560
17218 17217 17219 1 119.8800511 375.723200
17217 17219 17220 1 119.8800511 375.723200
17217 17219 17221 1 120.0200517 532.790560
17220 17219 17221 1 119.8800511 375.723200
17219 17221 17222 1 119.8800511 375.723200
17219 17221 17223 1 120.0200517 532.790560
17222 17221 17223 1 119.8800511 375.723200
17214 17223 17221 1 120.0200517 532.790560
17214 17223 17224 1 119.8800511 375.723200
17221 17223 17224 1 119.8800511 375.723200
17216 17225 17226 1 115.00000 209.200000
17227 17228 17229 1 119.8800511 375.723200
17227 17228 17237 1 119.8800511 375.723200
17229 17228 17237 1 120.0200517 532.790560
17228 17229 17230 1 121.3800518 83.010560
17228 17229 17231 1 120.0200517 532.790560
17230 17229 17231 1 121.3800518 83.010560
6737 17230 9405 1 109.50000 418.400000
6737 17230 17229 1 103.70004 836.800000
6737 17230 17239 1 109.50000 418.400000
9405 17230 17229 1 103.70004 836.800000
9405 17230 17239 1 109.50000 418.400000
17229 17230 17239 1 103.70004 1034.033760
17229 17231 17232 1 119.8800511 375.723200
17229 17231 17233 1 120.0200517 532.790560
17232 17231 17233 1 119.8800511 375.723200
17231 17233 17234 1 119.8800511 375.723200
17231 17233 17235 1 120.0200517 532.790560
17234 17233 17235 1 119.8800511 375.723200
17233 17235 17236 1 119.8800511 375.723200
17233 17235 17237 1 120.0200517 532.790560
17236 17235 17237 1 119.8800511 375.723200
17228 17237 17235 1 120.0200517 532.790560
17228 17237 17238 1 119.8800511 375.723200
17235 17237 17238 1 119.8800511 375.723200
17230 17239 17240 1 115.00000 209.200000
17241 17242 17243 1 119.8800511 375.723200
17241 17242 17251 1 119.8800511 375.723200
17243 17242 17251 1 120.0200517 532.790560
17242 17243 17244 1 121.3800518 83.010560
17242 17243 17245 1 120.0200517 532.790560
17244 17243 17245 1 121.3800518 83.010560
5504 17244 9430 1 109.50000 418.400000
5504 17244 17243 1 103.70004 836.800000
5504 17244 17253 1 109.50000 418.400000
9430 17244 17243 1 103.70004 836.800000
9430 17244 17253 1 109.50000 418.400000
17243 17244 17253 1 103.70004 1034.033760
17243 17245 17246 1 119.8800511 375.723200
17243 17245 17247 1 120.0200517 532.790560
17246 17245 17247 1 119.8800511 375.723200
17245 17247 17248 1 119.8800511 375.723200
17245 17247 17249 1 120.0200517 532.790560
17248 17247 17249 1 119.8800511 375.723200
17247 17249 17250 1 119.8800511 375.723200
17247 17249 17251 1 120.0200517 532.790560
17250 17249 17251 1 119.8800511 375.723200
17242 17251 17249 1 120.0200517 532.790560
17242 17251 17252 1 119.8800511 375.723200
17249 17251 17252 1 119.8800511 375.723200
17244 17253 17254 1 115.00000 209.200000
17255 17256 17257 1 119.8800511 375.723200
17255 17256 17265 1 119.8800511 375.723200
17257 17256 17265 1 120.0200517 532.790560
17256 17257 17258 1 121.3800518 83.010560
17256 17257 17259 1 120.0200517 532.790560
17258 17257 17259 1 121.3800518 83.010560
4811 17258 9464 1 109.50000 418.400000
4811 17258 17257 1 103.70004 836.800000
4811 17258 17267 1 109.50000 418.400000
9464 17258 17257 1 103.70004 836.800000
9464 17258 17267 1 109.50000 418.400000
17257 17258 17267 1 103.70004 1034.033760
17257 17259 17260 1 119.8800511 375.723200
17257 17259 17261 1 120.0200517 532.790560
17260 17259 17261 1 119.8800511 375.723200
17259 17261 17262 1 119.8800511 375.723200
17259 17261 17263 1 120.0200517 532.790560
17262 17261 17263 1 119.8800511 375.723200
17261 17263 17264 1 119.8800511 375.723200
17261 17263 17265 1 120.0200517 532.790560
17264 17263 17265 1 119.8800511 375.723200
17256 17265 17263 1 120.0200517 532.790560
17256 17265 17266 1 119.8800511 375.723200
17263 17265 17266 1 119.8800511 375.723200
17258 17267 17268 1 115.00000 209.200000
17269 17270 17271 1 119.8800511 375.723200
17269 17270 17279 1 119.8800511 375.723200
17271 17270 17279 1 120.0200517 532.790560
17270 17271 17272 1 121.3800518 83.010560
17270 17271 17273 1 120.0200517 532.790560
17272 17271 17273 1 121.3800518 83.010560
5257 17272 5448 1 109.50000 418.400000
5257 17272 17271 1 103.70004 836.800000
5257 17272 17281 1 109.50000 418.400000
5448 17272 17271 1 103.70004 836.800000
5448 17272 17281 1 109.50000 418.400000
17271 17272 17281 1 103.70004 1034.033760
17271 17273 17274 1 119.8800511 375.723200
17271 17273 17275 1 120.0200517 532.790560
17274 17273 17275 1 119.8800511 375.723200
17273 17275 17276 1 119.8800511 375.723200
17273 17275 17277 1 120.0200517 532.790560
17276 17275 17277 1 119.8800511 375.723200
17275 17277 17278 1 119.8800511 375.723200
17275 17277 17279 1 120.0200517 532.790560
17278 17277 17279 1 119.8800511 375.723200
17270 17279 17277 1 120.0200517 532.790560
17270 17279 17280 1 119.8800511 375.723200
17277 17279 17280 1 119.8800511 375.723200
17272 17281 17282 1 115.00000 209.200000
17283 17284 17285 1 119.8800511 375.723200
17283 17284 17293 1 119.8800511 375.723200
17285 17284 17293 1 120.0200517 532.790560
17284 17285 17286 1 121.3800518 83.010560
17284 17285 17287 1 120.0200517 532.790560
17286 17285 17287 1 121.3800518 83.010560
4318 17286 9492 1 109.50000 418.400000
4318 17286 17285 1 103.70004 836.800000
4318 17286 17295 1 109.50000 418.400000
9492 17286 17285 1 103.70004 836.800000
9492 17286 17295 1 109.50000 418.400000
17285 17286 17295 1 103.70004 1034.033760
17285 17287 17288 1 119.8800511 375.723200
17285 17287 17289 1 120.0200517 532.790560
17288 17287 17289 1 119.8800511 375.723200
17287 17289 17290 1 119.8800511 375.723200
17287 17289 17291 1 120.0200517 532.790560
17290 17289 17291 1 119.8800511 375.723200
17289 17291 17292 1 119.8800511 375.723200
17289 17291 17293 1 120.0200517 532.790560
17292 17291 17293 1 119.8800511 375.723200
17284 17293 17291 1 120.0200517 532.790560
17284 17293 17294 1 119.8800511 375.723200
17291 17293 17294 1 119.8800511 375.723200
17286 17295 17296 1 115.00000 209.200000
17297 17298 17299 1 119.8800511 375.723200
17297 17298 17307 1 119.8800511 375.723200
17299 17298 17307 1 120.0200517 532.790560
17298 17299 17300 1 121.3800518 83.010560
17298 17299 17301 1 120.0200517 532.790560
17300 17299 17301 1 121.3800518 83.010560
2176 17300 9500 1 109.50000 418.400000
2176 17300 17299 1 103.70004 836.800000
2176 17300 17309 1 109.50000 418.400000
9500 17300 17299 1 103.70004 836.800000
9500 17300 17309 1 109.50000 418.400000
17299 17300 17309 1 103.70004 1034.033760
17299 17301 17302 1 119.8800511 375.723200
17299 17301 17303 1 120.0200517 532.790560
17302 17301 17303 1 119.8800511 375.723200
17301 17303 17304 1 119.8800511 375.723200
17301 17303 17305 1 120.0200517 532.790560
17304 17303 17305 1 119.8800511 375.723200
17303 17305 17306 1 119.8800511 375.723200
17303 17305 17307 1 120.0200517 532.790560
17306 17305 17307 1 119.8800511 375.723200
17298 17307 17305 1 120.0200517 532.790560
17298 17307 17308 1 119.8800511 375.723200
17305 17307 17308 1 119.8800511 375.723200
17300 17309 17310 1 115.00000 209.200000
17311 17312 17313 1 119.8800511 375.723200
17311 17312 17321 1 119.8800511 375.723200
17313 17312 17321 1 120.0200517 532.790560
17312 17313 17314 1 121.3800518 83.010560
17312 17313 17315 1 120.0200517 532.790560
17314 17313 17315 1 121.3800518 83.010560
9547 17314 9548 1 109.50000 418.400000
9547 17314 17313 1 103.70004 836.800000
9547 17314 17323 1 109.50000 418.400000
9548 17314 17313 1 103.70004 836.800000
9548 17314 17323 1 109.50000 418.400000
17313 17314 17323 1 103.70004 1034.033760
17313 17315 17316 1 119.8800511 375.723200
17313 17315 17317 1 120.0200517 532.790560
17316 17315 17317 1 119.8800511 375.723200
17315 17317 17318 1 119.8800511 375.723200
17315 17317 17319 1 120.0200517 532.790560
17318 17317 17319 1 119.8800511 375.723200
17317 17319 17320 1 119.8800511 375.723200
17317 17319 17321 1 120.0200517 532.790560
17320 17319 17321 1 119.8800511 375.723200
17312 17321 17319 1 120.0200517 532.790560
17312 17321 17322 1 119.8800511 375.723200
17319 17321 17322 1 119.8800511 375.723200
17314 17323 17324 1 115.00000 209.200000
17325 17326 17327 1 119.8800511 375.723200
17325 17326 17335 1 119.8800511 375.723200
17327 17326 17335 1 120.0200517 532.790560
17326 17327 17328 1 121.3800518 83.010560
17326 17327 17329 1 120.0200517 532.790560
17328 17327 17329 1 121.3800518 83.010560
2986 17328 4060 1 109.50000 418.400000
2986 17328 17327 1 103.70004 836.800000
2986 17328 17337 1 109.50000 418.400000
4060 17328 17327 1 103.70004 836.800000
4060 17328 17337 1 109.50000 418.400000
17327 17328 17337 1 103.70004 1034.033760
17327 17329 17330 1 119.8800511 375.723200
17327 17329 17331 1 120.0200517 532.790560
17330 17329 17331 1 119.8800511 375.723200
17329 17331 17332 1 119.8800511 375.723200
17329 17331 17333 1 120.0200517 532.790560
17332 17331 17333 1 119.8800511 375.723200
17331 17333 17334 1 119.8800511 375.723200
17331 17333 17335 1 120.0200517 532.790560
17334 17333 17335 1 119.8800511 375.723200
17326 17335 17333 1 120.0200517 532.790560
17326 17335 17336 1 119.8800511 375.723200
17333 17335 17336 1 119.8800511 375.723200
17328 17337 17338 1 115.00000 209.200000
17339 17340 17341 1 119.8800511 375.723200
17339 17340 17349 1 119.8800511 375.723200
17341 17340 17349 1 120.0200517 532.790560
17340 17341 17342 1 121.3800518 83.010560
17340 17341 17343 1 120.0200517 532.790560
17342 17341 17343 1 121.3800518 83.010560
5462 17342 9563 1 109.50000 418.400000
5462 17342 17341 1 103.70004 836.800000
5462 17342 17351 1 109.50000 418.400000
9563 17342 17341 1 103.70004 836.800000
9563 17342 17351 1 109.50000 418.400000
17341 17342 17351 1 103.70004 1034.033760
17341 17343 17344 1 119.8800511 375.723200
17341 17343 17345 1 120.0200517 532.790560
17344 17343 17345 1 119.8800511 375.723200
17343 17345 17346 1 119.8800511 375.723200
17343 17345 17347 1 120.0200517 532.790560
17346 17345 17347 1 119.8800511 375.723200
17345 17347 17348 1 119.8800511 375.723200
17345 17347 17349 1 120.0200517 532.790560
17348 17347 17349 1 119.8800511 375.723200
17340 17349 17347 1 120.0200517 532.790560
17340 17349 17350 1 119.8800511 375.723200
17347 17349 17350 1 119.8800511 375.723200
17342 17351 17352 1 115.00000 209.200000
17353 17354 17355 1 119.8800511 375.723200
17353 17354 17363 1 119.8800511 375.723200
17355 17354 17363 1 120.0200517 532.790560
17354 17355 17356 1 121.3800518 83.010560
17354 17355 17357 1 120.0200517 532.790560
17356 17355 17357 1 121.3800518 83.010560
2498 17356 9568 1 109.50000 418.400000
2498 17356 17355 1 103.70004 836.800000
2498 17356 17365 1 109.50000 418.400000
9568 17356 17355 1 103.70004 836.800000
9568 17356 17365 1 109.50000 418.400000
17355 17356 17365 1 103.70004 1034.033760
17355 17357 17358 1 119.8800511 375.723200
17355 17357 17359 1 120.0200517 532.790560
17358 17357 17359 1 119.8800511 375.723200
17357 17359 17360 1 119.8800511 375.723200
17357 17359 17361 1 120.0200517 532.790560
17360 17359 17361 1 119.8800511 375.723200
17359 17361 17362 1 119.8800511 375.723200
17359 17361 17363 1 120.0200517 532.790560
17362 17361 17363 1 119.8800511 375.723200
17354 17363 17361 1 120.0200517 532.790560
17354 17363 17364 1 119.8800511 375.723200
17361 17363 17364 1 119.8800511 375.723200
17356 17365 17366 1 115.00000 209.200000
17367 17368 17369 1 119.8800511 375.723200
17367 17368 17377 1 119.8800511 375.723200
17369 17368 17377 1 120.0200517 532.790560
17368 17369 17370 1 121.3800518 83.010560
17368 17369 17371 1 120.0200517 532.790560
17370 17369 17371 1 121.3800518 83.010560
3184 17370 6126 1 109.50000 418.400000
3184 17370 17369 1 103.70004 836.800000
3184 17370 17379 1 109.50000 418.400000
6126 17370 17369 1 103.70004 836.800000
6126 17370 17379 1 109.50000 418.400000
17369 17370 17379 1 103.70004 1034.033760
17369 17371 17372 1 119.8800511 375.723200
17369 17371 17373 1 120.0200517 532.790560
17372 17371 17373 1 119.8800511 375.723200
17371 17373 17374 1 119.8800511 375.723200
17371 17373 17375 1 120.0200517 532.790560
17374 17373 17375 1 119.8800511 375.723200
17373 17375 17376 1 119.8800511 375.723200
17373 17375 17377 1 120.0200517 532.790560
17376 17375 17377 1 119.8800511 375.723200
17368 17377 17375 1 120.0200517 532.790560
17368 17377 17378 1 119.8800511 375.723200
17375 17377 17378 1 119.8800511 375.723200
17370 17379 17380 1 115.00000 209.200000
17381 17382 17383 1 119.8800511 375.723200
17381 17382 17391 1 119.8800511 375.723200
17383 17382 17391 1 120.0200517 532.790560
17382 17383 17384 1 121.3800518 83.010560
17382 17383 17385 1 120.0200517 532.790560
17384 17383 17385 1 121.3800518 83.010560
1960 17384 9622 1 109.50000 418.400000
1960 17384 17383 1 103.70004 836.800000
1960 17384 17393 1 109.50000 418.400000
9622 17384 17383 1 103.70004 836.800000
9622 17384 17393 1 109.50000 418.400000
17383 17384 17393 1 103.70004 1034.033760
17383 17385 17386 1 119.8800511 375.723200
17383 17385 17387 1 120.0200517 532.790560
17386 17385 17387 1 119.8800511 375.723200
17385 17387 17388 1 119.8800511 375.723200
17385 17387 17389 1 120.0200517 532.790560
17388 17387 17389 1 119.8800511 375.723200
17387 17389 17390 1 119.8800511 375.723200
17387 17389 17391 1 120.0200517 532.790560
17390 17389 17391 1 119.8800511 375.723200
17382 17391 17389 1 120.0200517 532.790560
17382 17391 17392 1 119.8800511 375.723200
17389 17391 17392 1 119.8800511 375.723200
17384 17393 17394 1 115.00000 209.200000
17395 17396 17397 1 119.8800511 375.723200
17395 17396 17405 1 119.8800511 375.723200
17397 17396 17405 1 120.0200517 532.790560
17396 17397 17398 1 121.3800518 83.010560
17396 17397 17399 1 120.0200517 532.790560
17398 17397 17399 1 121.3800518 83.010560
9644 17398 9645 1 109.50000 418.400000
9644 17398 17397 1 103.70004 836.800000
9644 17398 17407 1 109.50000 418.400000
9645 17398 17397 1 103.70004 836.800000
9645 17398 17407 1 109.50000 418.400000
17397 17398 17407 1 103.70004 1034.033760
17397 17399 17400 1 119.8800511 375.723200
17397 17399 17401 1 120.0200517 532.790560
17400 17399 17401 1 119.8800511 375.723200
17399 17401 17402 1 119.8800511 375.723200
17399 17401 17403 1 120.0200517 532.790560
17402 17401 17403 1 119.8800511 375.723200
17401 17403 17404 1 119.8800511 375.723200
17401 17403 17405 1 120.0200517 532.790560
17404 17403 17405 1 119.8800511 375.723200
17396 17405 17403 1 120.0200517 532.790560
17396 17405 17406 1 119.8800511 375.723200
17403 17405 17406 1 119.8800511 375.723200
17398 17407 17408 1 115.00000 209.200000
17409 17410 17411 1 119.8800511 375.723200
17409 17410 17419 1 119.8800511 375.723200
17411 17410 17419 1 120.0200517 532.790560
17410 17411 17412 1 121.3800518 83.010560
17410 17411 17413 1 120.0200517 532.790560
17412 17411 17413 1 121.3800518 83.010560
5173 17412 9032 1 109.50000 418.400000
5173 17412 17411 1 103.70004 836.800000
5173 17412 17421 1 109.50000 418.400000
9032 17412 17411 1 103.70004 836.800000
9032 17412 17421 1 109.50000 418.400000
17411 17412 17421 1 103.70004 1034.033760
17411 17413 17414 1 119.8800511 375.723200
17411 17413 17415 1 120.0200517 532.790560
17414 17413 17415 1 119.8800511 375.723200
17413 17415 17416 1 119.8800511 375.723200
17413 17415 17417 1 120.0200517 532.790560
17416 17415 17417 1 119.8800511 375.723200
17415 17417 17418 1 119.8800511 375.723200
17415 17417 17419 1 120.0200517 532.790560
17418 17417 17419 1 119.8800511 375.723200
17410 17419 17417 1 120.0200517 532.790560
17410 17419 17420 1 119.8800511 375.723200
17417 17419 17420 1 119.8800511 375.723200
17412 17421 17422 1 115.00000 209.200000
17423 17424 17425 1 119.8800511 375.723200
17423 17424 17433 1 119.8800511 375.723200
17425 17424 17433 1 120.0200517 532.790560
17424 17425 17426 1 121.3800518 83.010560
17424 17425 17427 1 120.0200517 532.790560
17426 17425 17427 1 121.3800518 83.010560
603 17426 7772 1 109.50000 418.400000
603 17426 17425 1 103.70004 836.800000
603 17426 17435 1 109.50000 418.400000
7772 17426 17425 1 103.70004 836.800000
7772 17426 17435 1 109.50000 418.400000
17425 17426 17435 1 103.70004 1034.033760
17425 17427 17428 1 119.8800511 375.723200
17425 17427 17429 1 120.0200517 532.790560
17428 17427 17429 1 119.8800511 375.723200
17427 17429 17430 1 119.8800511 375.723200
17427 17429 17431 1 120.0200517 532.790560
17430 17429 17431 1 119.8800511 375.723200
17429 17431 17432 1 119.8800511 375.723200
17429 17431 17433 1 120.0200517 532.790560
17432 17431 17433 1 119.8800511 375.723200
17424 17433 17431 1 120.0200517 532.790560
17424 17433 17434 1 119.8800511 375.723200
17431 17433 17434 1 119.8800511 375.723200
17426 17435 17436 1 115.00000 209.200000
17437 17438 17439 1 119.8800511 375.723200
17437 17438 17447 1 119.8800511 375.723200
17439 17438 17447 1 120.0200517 532.790560
17438 17439 17440 1 121.3800518 83.010560
17438 17439 17441 1 120.0200517 532.790560
17440 17439 17441 1 121.3800518 83.010560
9764 17440 9765 1 109.50000 418.400000
9764 17440 17439 1 103.70004 836.800000
9764 17440 17449 1 109.50000 418.400000
9765 17440 17439 1 103.70004 836.800000
9765 17440 17449 1 109.50000 418.400000
17439 17440 17449 1 103.70004 1034.033760
17439 17441 17442 1 119.8800511 375.723200
17439 17441 17443 1 120.0200517 532.790560
17442 17441 17443 1 119.8800511 375.723200
17441 17443 17444 1 119.8800511 375.723200
17441 17443 17445 1 120.0200517 532.790560
17444 17443 17445 1 119.8800511 375.723200
17443 17445 17446 1 119.8800511 375.723200
17443 17445 17447 1 120.0200517 532.790560
17446 17445 17447 1 119.8800511 375.723200
17438 17447 17445 1 120.0200517 532.790560
17438 17447 17448 1 119.8800511 375.723200
17445 17447 17448 1 119.8800511 375.723200
17440 17449 17450 1 115.00000 209.200000
17451 17452 17453 1 119.8800511 375.723200
17451 17452 17461 1 119.8800511 375.723200
17453 17452 17461 1 120.0200517 532.790560
17452 17453 17454 1 121.3800518 83.010560
17452 17453 17455 1 120.0200517 532.790560
17454 17453 17455 1 121.3800518 83.010560
7732 17454 8725 1 109.50000 418.400000
7732 17454 17453 1 103.70004 836.800000
7732 17454 17463 1 109.50000 418.400000
8725 17454 17453 1 103.70004 836.800000
8725 17454 17463 1 109.50000 418.400000
17453 17454 17463 1 103.70004 1034.033760
17453 17455 17456 1 119.8800511 375.723200
17453 17455 17457 1 120.0200517 532.790560
17456 17455 17457 1 119.8800511 375.723200
17455 17457 17458 1 119.8800511 375.723200
17455 17457 17459 1 120.0200517 532.790560
17458 17457 17459 1 119.8800511 375.723200
17457 17459 17460 1 119.8800511 375.723200
17457 17459 17461 1 120.0200517 532.790560
17460 17459 17461 1 119.8800511 375.723200
17452 17461 17459 1 120.0200517 532.790560
17452 17461 17462 1 119.8800511 375.723200
17459 17461 17462 1 119.8800511 375.723200
17454 17463 17464 1 115.00000 209.200000
17465 17466 17467 1 119.8800511 375.723200
17465 17466 17475 1 119.8800511 375.723200
17467 17466 17475 1 120.0200517 532.790560
17466 17467 17468 1 121.3800518 83.010560
17466 17467 17469 1 120.0200517 532.790560
17468 17467 17469 1 121.3800518 83.010560
395 17468 9825 1 109.50000 418.400000
395 17468 17467 1 103.70004 836.800000
395 17468 17477 1 109.50000 418.400000
9825 17468 17467 1 103.70004 836.800000
9825 17468 17477 1 109.50000 418.400000
17467 17468 17477 1 103.70004 1034.033760
17467 17469 17470 1 119.8800511 375.723200
17467 17469 17471 1 120.0200517 532.790560
17470 17469 17471 1 119.8800511 375.723200
17469 17471 17472 1 119.8800511 375.723200
17469 17471 17473 1 120.0200517 532.790560
17472 17471 17473 1 119.8800511 375.723200
17471 17473 17474 1 119.8800511 375.723200
17471 17473 17475 1 120.0200517 532.790560
17474 17473 17475 1 119.8800511 375.723200
17466 17475 17473 1 120.0200517 532.790560
17466 17475 17476 1 119.8800511 375.723200
17473 17475 17476 1 119.8800511 375.723200
17468 17477 17478 1 115.00000 209.200000
17479 17480 17481 1 119.8800511 375.723200
17479 17480 17489 1 119.8800511 375.723200
17481 17480 17489 1 120.0200517 532.790560
17480 17481 17482 1 121.3800518 83.010560
17480 17481 17483 1 120.0200517 532.790560
17482 17481 17483 1 121.3800518 83.010560
3956 17482 4014 1 109.50000 418.400000
3956 17482 17481 1 103.70004 836.800000
3956 17482 17491 1 109.50000 418.400000
4014 17482 17481 1 103.70004 836.800000
4014 17482 17491 1 109.50000 418.400000
17481 17482 17491 1 103.70004 1034.033760
17481 17483 17484 1 119.8800511 375.723200
17481 17483 17485 1 120.0200517 532.790560
17484 17483 17485 1 119.8800511 375.723200
17483 17485 17486 1 119.8800511 375.723200
17483 17485 17487 1 120.0200517 532.790560
17486 17485 17487 1 119.8800511 375.723200
17485 17487 17488 1 119.8800511 375.723200
17485 17487 17489 1 120.0200517 532.790560
17488 17487 17489 1 119.8800511 375.723200
17480 17489 17487 1 120.0200517 532.790560
17480 17489 17490 1 119.8800511 375.723200
17487 17489 17490 1 119.8800511 375.723200
17482 17491 17492 1 115.00000 209.200000
17493 17494 17495 1 119.8800511 375.723200
17493 17494 17503 1 119.8800511 375.723200
17495 17494 17503 1 120.0200517 532.790560
17494 17495 17496 1 121.3800518 83.010560
17494 17495 17497 1 120.0200517 532.790560
17496 17495 17497 1 121.3800518 83.010560
5580 17496 5581 1 109.50000 418.400000
5580 17496 17495 1 103.70004 836.800000
5580 17496 17505 1 109.50000 418.400000
5581 17496 17495 1 103.70004 836.800000
5581 17496 17505 1 109.50000 418.400000
17495 17496 17505 1 103.70004 1034.033760
17495 17497 17498 1 119.8800511 375.723200
17495 17497 17499 1 120.0200517 532.790560
17498 17497 17499 1 119.8800511 375.723200
17497 17499 17500 1 119.8800511 375.723200
17497 17499 17501 1 120.0200517 532.790560
17500 17499 17501 1 119.8800511 375.723200
17499 17501 17502 1 119.8800511 375.723200
17499 17501 17503 1 120.0200517 532.790560
17502 17501 17503 1 119.8800511 375.723200
17494 17503 17501 1 120.0200517 532.790560
17494 17503 17504 1 119.8800511 375.723200
17501 17503 17504 1 119.8800511 375.723200
17496 17505 17506 1 115.00000 209.200000
17507 17508 17509 1 119.8800511 375.723200
17507 17508 17517 1 119.8800511 375.723200
17509 17508 17517 1 120.0200517 532.790560
17508 17509 17510 1 121.3800518 83.010560
17508 17509 17511 1 120.0200517 532.790560
17510 17509 17511 1 121.3800518 83.010560
5437 17510 8438 1 109.50000 418.400000
5437 17510 17509 1 103.70004 836.800000
5437 17510 17519 1 109.50000 418.400000
8438 17510 17509 1 103.70004 836.800000
8438 17510 17519 1 109.50000 418.400000
17509 17510 17519 1 103.70004 1034.033760
17509 17511 17512 1 119.8800511 375.723200
17509 17511 17513 1 120.0200517 532.790560
17512 17511 17513 1 119.8800511 375.723200
17511 17513 17514 1 119.8800511 375.723200
17511 17513 17515 1 120.0200517 532.790560
17514 17513 17515 1 119.8800511 375.723200
17513 17515 17516 1 119.8800511 375.723200
17513 17515 17517 1 120.0200517 532.790560
17516 17515 17517 1 119.8800511 375.723200
17508 17517 17515 1 120.0200517 532.790560
17508 17517 17518 1 119.8800511 375.723200
17515 17517 17518 1 119.8800511 375.723200
17510 17519 17520 1 115.00000 209.200000
17521 17522 17523 1 119.8800511 375.723200
17521 17522 17531 1 119.8800511 375.723200
17523 17522 17531 1 120.0200517 532.790560
17522 17523 17524 1 121.3800518 83.010560
17522 17523 17525 1 120.0200517 532.790560
17524 17523 17525 1 121.3800518 83.010560
7020 17524 9542 1 109.50000 418.400000
7020 17524 17523 1 103.70004 836.800000
7020 17524 17533 1 109.50000 418.400000
9542 17524 17523 1 103.70004 836.800000
9542 17524 17533 1 109.50000 418.400000
17523 17524 17533 1 103.70004 1034.033760
17523 17525 17526 1 119.8800511 375.723200
17523 17525 17527 1 120.0200517 532.790560
17526 17525 17527 1 119.8800511 375.723200
17525 17527 17528 1 119.8800511 375.723200
17525 17527 17529 1 120.0200517 532.790560
17528 17527 17529 1 119.8800511 375.723200
17527 17529 17530 1 119.8800511 375.723200
17527 17529 17531 1 120.0200517 532.790560
17530 17529 17531 1 119.8800511 375.723200
17522 17531 17529 1 120.0200517 532.790560
17522 17531 17532 1 119.8800511 375.723200
17529 17531 17532 1 119.8800511 375.723200
17524 17533 17534 1 115.00000 209.200000
17535 17536 17537 1 119.8800511 375.723200
17535 17536 17545 1 119.8800511 375.723200
17537 17536 17545 1 120.0200517 532.790560
17536 17537 17538 1 121.3800518 83.010560
17536 17537 17539 1 120.0200517 532.790560
17538 17537 17539 1 121.3800518 83.010560
7981 17538 9990 1 109.50000 418.400000
7981 17538 17537 1 103.70004 836.800000
7981 17538 17547 1 109.50000 418.400000
9990 17538 17537 1 103.70004 836.800000
9990 17538 17547 1 109.50000 418.400000
17537 17538 17547 1 103.70004 1034.033760
17537 17539 17540 1 119.8800511 375.723200
17537 17539 17541 1 120.0200517 532.790560
17540 17539 17541 1 119.8800511 375.723200
17539 17541 17542 1 119.8800511 375.723200
17539 17541 17543 1 120.0200517 532.790560
17542 17541 17543 1 119.8800511 375.723200
17541 17543 17544 1 119.8800511 375.723200
17541 17543 17545 1 120.0200517 532.790560
17544 17543 17545 1 119.8800511 375.723200
17536 17545 17543 1 120.0200517 532.790560
17536 17545 17546 1 119.8800511 375.723200
17543 17545 17546 1 119.8800511 375.723200
17538 17547 17548 1 115.00000 209.200000
17549 17550 17551 1 119.8800511 375.723200
17549 17550 17559 1 119.8800511 375.723200
17551 17550 17559 1 120.0200517 532.790560
17550 17551 17552 1 121.3800518 83.010560
17550 17551 17553 1 120.0200517 532.790560
17552 17551 17553 1 121.3800518 83.010560
2148 17552 8296 1 109.50000 418.400000
2148 17552 17551 1 103.70004 836.800000
2148 17552 17561 1 109.50000 418.400000
8296 17552 17551 1 103.70004 836.800000
8296 17552 17561 1 109.50000 418.400000
17551 17552 17561 1 103.70004 1034.033760
17551 17553 17554 1 119.8800511 375.723200
17551 17553 17555 1 120.0200517 532.790560
17554 17553 17555 1 119.8800511 375.723200
17553 17555 17556 1 119.8800511 375.723200
17553 17555 17557 1 120.0200517 532.790560
17556 17555 17557 1 119.8800511 375.723200
17555 17557 17558 1 119.8800511 375.723200
17555 17557 17559 1 120.0200517 532.790560
17558 17557 17559 1 119.8800511 375.723200
17550 17559 17557 1 120.0200517 532.790560
17550 17559 17560 1 119.8800511 375.723200
17557 17559 17560 1 119.8800511 375.723200
17552 17561 17562 1 115.00000 209.200000
17563 17564 17565 1 119.8800511 375.723200
17563 17564 17573 1 119.8800511 375.723200
17565 17564 17573 1 120.0200517 532.790560
17564 17565 17566 1 121.3800518 83.010560
17564 17565 17567 1 120.0200517 532.790560
17566 17565 17567 1 121.3800518 83.010560
2421 17566 2591 1 109.50000 418.400000
2421 17566 17565 1 103.70004 836.800000
2421 17566 17575 1 109.50000 418.400000
2591 17566 17565 1 103.70004 836.800000
2591 17566 17575 1 109.50000 418.400000
17565 17566 17575 1 103.70004 1034.033760
17565 17567 17568 1 119.8800511 375.723200
17565 17567 17569 1 120.0200517 532.790560
17568 17567 17569 1 119.8800511 375.723200
17567 17569 17570 1 119.8800511 375.723200
17567 17569 17571 1 120.0200517 532.790560
17570 17569 17571 1 119.8800511 375.723200
17569 17571 17572 1 119.8800511 375.723200
17569 17571 17573 1 120.0200517 532.790560
17572 17571 17573 1 119.8800511 375.723200
17564 17573 17571 1 120.0200517 532.790560
17564 17573 17574 1 119.8800511 375.723200
17571 17573 17574 1 119.8800511 375.723200
17566 17575 17576 1 115.00000 209.200000
17577 17578 17579 1 119.8800511 375.723200
17577 17578 17587 1 119.8800511 375.723200
17579 17578 17587 1 120.0200517 532.790560
17578 17579 17580 1 121.3800518 83.010560
17578 17579 17581 1 120.0200517 532.790560
17580 17579 17581 1 121.3800518 83.010560
8095 17580 10083 1 109.50000 418.400000
8095 17580 17579 1 103.70004 836.800000
8095 17580 17589 1 109.50000 418.400000
10083 17580 17579 1 103.70004 836.800000
10083 17580 17589 1 109.50000 418.400000
17579 17580 17589 1 103.70004 1034.033760
17579 17581 17582 1 119.8800511 375.723200
17579 17581 17583 1 120.0200517 532.790560
17582 17581 17583 1 119.8800511 375.723200
17581 17583 17584 1 119.8800511 375.723200
17581 17583 17585 1 120.0200517 532.790560
17584 17583 17585 1 119.8800511 375.723200
17583 17585 17586 1 119.8800511 375.723200
17583 17585 17587 1 120.0200517 532.790560
17586 17585 17587 1 119.8800511 375.723200
17578 17587 17585 1 120.0200517 532.790560
17578 17587 17588 1 119.8800511 375.723200
17585 17587 17588 1 119.8800511 375.723200
17580 17589 17590 1 115.00000 209.200000
17591 17592 17593 1 119.8800511 375.723200
17591 17592 17601 1 119.8800511 375.723200
17593 17592 17601 1 120.0200517 532.790560
17592 17593 17594 1 121.3800518 83.010560
17592 17593 17595 1 120.0200517 532.790560
17594 17593 17595 1 121.3800518 83.010560
1481 17594 3644 1 109.50000 418.400000
1481 17594 17593 1 103.70004 836.800000
1481 17594 17603 1 109.50000 418.400000
3644 17594 17593 1 103.70004 836.800000
3644 17594 17603 1 109.50000 418.400000
17593 17594 17603 1 103.70004 1034.033760
17593 17595 17596 1 119.8800511 375.723200
17593 17595 17597 1 120.0200517 532.790560
17596 17595 17597 1 119.8800511 375.723200
17595 17597 17598 1 119.8800511 375.723200
17595 17597 17599 1 120.0200517 532.790560
17598 17597 17599 1 119.8800511 375.723200
17597 17599 17600 1 119.8800511 375.723200
17597 17599 17601 1 120.0200517 532.790560
17600 17599 17601 1 119.8800511 375.723200
17592 17601 17599 1 120.0200517 532.790560
17592 17601 17602 1 119.8800511 375.723200
17599 17601 17602 1 119.8800511 375.723200
17594 17603 17604 1 115.00000 209.200000
17605 17606 17607 1 119.8800511 375.723200
17605 17606 17615 1 119.8800511 375.723200
17607 17606 17615 1 120.0200517 532.790560
17606 17607 17608 1 121.3800518 83.010560
17606 17607 17609 1 120.0200517 532.790560
17608 17607 17609 1 121.3800518 83.010560
3635 17608 7073 1 109.50000 418.400000
3635 17608 17607 1 103.70004 836.800000
3635 17608 17617 1 109.50000 418.400000
7073 17608 17607 1 103.70004 836.800000
7073 17608 17617 1 109.50000 418.400000
17607 17608 17617 1 103.70004 1034.033760
17607 17609 17610 1 119.8800511 375.723200
17607 17609 17611 1 120.0200517 532.790560
17610 17609 17611 1 119.8800511 375.723200
17609 17611 17612 1 119.8800511 375.723200
17609 17611 17613 1 120.0200517 532.790560
17612 17611 17613 1 119.8800511 375.723200
17611 17613 17614 1 119.8800511 375.723200
17611 17613 17615 1 120.0200517 532.790560
17614 17613 17615 1 119.8800511 375.723200
17606 17615 17613 1 120.0200517 532.790560
17606 17615 17616 1 119.8800511 375.723200
17613 17615 17616 1 119.8800511 375.723200
17608 17617 17618 1 115.00000 209.200000
17619 17620 17621 1 119.8800511 375.723200
17619 17620 17629 1 119.8800511 375.723200
17621 17620 17629 1 120.0200517 532.790560
17620 17621 17622 1 121.3800518 83.010560
17620 17621 17623 1 120.0200517 532.790560
17622 17621 17623 1 121.3800518 83.010560
2624 17622 10143 1 109.50000 418.400000
2624 17622 17621 1 103.70004 836.800000
2624 17622 17631 1 109.50000 418.400000
10143 17622 17621 1 103.70004 836.800000
10143 17622 17631 1 109.50000 418.400000
17621 17622 17631 1 103.70004 1034.033760
17621 17623 17624 1 119.8800511 375.723200
17621 17623 17625 1 120.0200517 532.790560
17624 17623 17625 1 119.8800511 375.723200
17623 17625 17626 1 119.8800511 375.723200
17623 17625 17627 1 120.0200517 532.790560
17626 17625 17627 1 119.8800511 375.723200
17625 17627 17628 1 119.8800511 375.723200
17625 17627 17629 1 120.0200517 532.790560
17628 17627 17629 1 119.8800511 375.723200
17620 17629 17627 1 120.0200517 532.790560
17620 17629 17630 1 119.8800511 375.723200
17627 17629 17630 1 119.8800511 375.723200
17622 17631 17632 1 115.00000 209.200000
17633 17634 17635 1 119.8800511 375.723200
17633 17634 17643 1 119.8800511 375.723200
17635 17634 17643 1 120.0200517 532.790560
17634 17635 17636 1 121.3800518 83.010560
17634 17635 17637 1 120.0200517 532.790560
17636 17635 17637 1 121.3800518 83.010560
241 17636 9643 1 109.50000 418.400000
241 17636 17635 1 103.70004 836.800000
241 17636 17645 1 109.50000 418.400000
9643 17636 17635 1 103.70004 836.800000
9643 17636 17645 1 109.50000 418.400000
17635 17636 17645 1 103.70004 1034.033760
17635 17637 17638 1 119.8800511 375.723200
17635 17637 17639 1 120.0200517 532.790560
17638 17637 17639 1 119.8800511 375.723200
17637 17639 17640 1 119.8800511 375.723200
17637 17639 17641 1 120.0200517 532.790560
17640 17639 17641 1 119.8800511 375.723200
17639 17641 17642 1 119.8800511 375.723200
17639 17641 17643 1 120.0200517 532.790560
17642 17641 17643 1 119.8800511 375.723200
17634 17643 17641 1 120.0200517 532.790560
17634 17643 17644 1 119.8800511 375.723200
17641 17643 17644 1 119.8800511 375.723200
17636 17645 17646 1 115.00000 209.200000
17647 17648 17649 1 119.8800511 375.723200
17647 17648 17657 1 119.8800511 375.723200
17649 17648 17657 1 120.0200517 532.790560
17648 17649 17650 1 121.3800518 83.010560
17648 17649 17651 1 120.0200517 532.790560
17650 17649 17651 1 121.3800518 83.010560
6892 17650 8331 1 109.50000 418.400000
6892 17650 17649 1 103.70004 836.800000
6892 17650 17659 1 109.50000 418.400000
8331 17650 17649 1 103.70004 836.800000
8331 17650 17659 1 109.50000 418.400000
17649 17650 17659 1 103.70004 1034.033760
17649 17651 17652 1 119.8800511 375.723200
17649 17651 17653 1 120.0200517 532.790560
17652 17651 17653 1 119.8800511 375.723200
17651 17653 17654 1 119.8800511 375.723200
17651 17653 17655 1 120.0200517 532.790560
17654 17653 17655 1 119.8800511 375.723200
17653 17655 17656 1 119.8800511 375.723200
17653 17655 17657 1 120.0200517 532.790560
17656 17655 17657 1 119.8800511 375.723200
17648 17657 17655 1 120.0200517 532.790560
17648 17657 17658 1 119.8800511 375.723200
17655 17657 17658 1 119.8800511 375.723200
17650 17659 17660 1 115.00000 209.200000
17661 17662 17663 1 119.8800511 375.723200
17661 17662 17671 1 119.8800511 375.723200
17663 17662 17671 1 120.0200517 532.790560
17662 17663 17664 1 121.3800518 83.010560
17662 17663 17665 1 120.0200517 532.790560
17664 17663 17665 1 121.3800518 83.010560
5709 17664 6741 1 109.50000 418.400000
5709 17664 17663 1 103.70004 836.800000
5709 17664 17673 1 109.50000 418.400000
6741 17664 17663 1 103.70004 836.800000
6741 17664 17673 1 109.50000 418.400000
17663 17664 17673 1 103.70004 1034.033760
17663 17665 17666 1 119.8800511 375.723200
17663 17665 17667 1 120.0200517 532.790560
17666 17665 17667 1 119.8800511 375.723200
17665 17667 17668 1 119.8800511 375.723200
17665 17667 17669 1 120.0200517 532.790560
17668 17667 17669 1 119.8800511 375.723200
17667 17669 17670 1 119.8800511 375.723200
17667 17669 17671 1 120.0200517 532.790560
17670 17669 17671 1 119.8800511 375.723200
17662 17671 17669 1 120.0200517 532.790560
17662 17671 17672 1 119.8800511 375.723200
17669 17671 17672 1 119.8800511 375.723200
17664 17673 17674 1 115.00000 209.200000
17675 17676 17677 1 119.8800511 375.723200
17675 17676 17685 1 119.8800511 375.723200
17677 17676 17685 1 120.0200517 532.790560
17676 17677 17678 1 121.3800518 83.010560
17676 17677 17679 1 120.0200517 532.790560
17678 17677 17679 1 121.3800518 83.010560
8942 17678 10276 1 109.50000 418.400000
8942 17678 17677 1 103.70004 836.800000
8942 17678 17687 1 109.50000 418.400000
10276 17678 17677 1 103.70004 836.800000
10276 17678 17687 1 109.50000 418.400000
17677 17678 17687 1 103.70004 1034.033760
17677 17679 17680 1 119.8800511 375.723200
17677 17679 17681 1 120.0200517 532.790560
17680 17679 17681 1 119.8800511 375.723200
17679 17681 17682 1 119.8800511 375.723200
17679 17681 17683 1 120.0200517 532.790560
17682 17681 17683 1 119.8800511 375.723200
17681 17683 17684 1 119.8800511 375.723200
17681 17683 17685 1 120.0200517 532.790560
17684 17683 17685 1 119.8800511 375.723200
17676 17685 17683 1 120.0200517 532.790560
17676 17685 17686 1 119.8800511 375.723200
17683 17685 17686 1 119.8800511 375.723200
17678 17687 17688 1 115.00000 209.200000
17689 17690 17691 1 119.8800511 375.723200
17689 17690 17699 1 119.8800511 375.723200
17691 17690 17699 1 120.0200517 532.790560
17690 17691 17692 1 121.3800518 83.010560
17690 17691 17693 1 120.0200517 532.790560
17692 17691 17693 1 121.3800518 83.010560
4363 17692 9648 1 109.50000 418.400000
4363 17692 17691 1 103.70004 836.800000
4363 17692 17701 1 109.50000 418.400000
9648 17692 17691 1 103.70004 836.800000
9648 17692 17701 1 109.50000 418.400000
17691 17692 17701 1 103.70004 1034.033760
17691 17693 17694 1 119.8800511 375.723200
17691 17693 17695 1 120.0200517 532.790560
17694 17693 17695 1 119.8800511 375.723200
17693 17695 17696 1 119.8800511 375.723200
17693 17695 17697 1 120.0200517 532.790560
17696 17695 17697 1 119.8800511 375.723200
17695 17697 17698 1 119.8800511 375.723200
17695 17697 17699 1 120.0200517 532.790560
17698 17697 17699 1 119.8800511 375.723200
17690 17699 17697 1 120.0200517 532.790560
17690 17699 17700 1 119.8800511 375.723200
17697 17699 17700 1 119.8800511 375.723200
17692 17701 17702 1 115.00000 209.200000
17703 17704 17705 1 119.8800511 375.723200
17703 17704 17713 1 119.8800511 375.723200
17705 17704 17713 1 120.0200517 532.790560
17704 17705 17706 1 121.3800518 83.010560
17704 17705 17707 1 120.0200517 532.790560
17706 17705 17707 1 121.3800518 83.010560
6492 17706 10307 1 109.50000 418.400000
6492 17706 17705 1 103.70004 836.800000
6492 17706 17715 1 109.50000 418.400000
10307 17706 17705 1 103.70004 836.800000
10307 17706 17715 1 109.50000 418.400000
17705 17706 17715 1 103.70004 1034.033760
17705 17707 17708 1 119.8800511 375.723200
17705 17707 17709 1 120.0200517 532.790560
17708 17707 17709 1 119.8800511 375.723200
17707 17709 17710 1 119.8800511 375.723200
17707 17709 17711 1 120.0200517 532.790560
17710 17709 17711 1 119.8800511 375.723200
17709 17711 17712 1 119.8800511 375.723200
17709 17711 17713 1 120.0200517 532.790560
17712 17711 17713 1 119.8800511 375.723200
17704 17713 17711 1 120.0200517 532.790560
17704 17713 17714 1 119.8800511 375.723200
17711 17713 17714 1 119.8800511 375.723200
17706 17715 17716 1 115.00000 209.200000
17717 17718 17719 1 119.8800511 375.723200
17717 17718 17727 1 119.8800511 375.723200
17719 17718 17727 1 120.0200517 532.790560
17718 17719 17720 1 121.3800518 83.010560
17718 17719 17721 1 120.0200517 532.790560
17720 17719 17721 1 121.3800518 83.010560
4051 17720 10314 1 109.50000 418.400000
4051 17720 17719 1 103.70004 836.800000
4051 17720 17729 1 109.50000 418.400000
10314 17720 17719 1 103.70004 836.800000
10314 17720 17729 1 109.50000 418.400000
17719 17720 17729 1 103.70004 1034.033760
17719 17721 17722 1 119.8800511 375.723200
17719 17721 17723 1 120.0200517 532.790560
17722 17721 17723 1 119.8800511 375.723200
17721 17723 17724 1 119.8800511 375.723200
17721 17723 17725 1 120.0200517 532.790560
17724 17723 17725 1 119.8800511 375.723200
17723 17725 17726 1 119.8800511 375.723200
17723 17725 17727 1 120.0200517 532.790560
17726 17725 17727 1 119.8800511 375.723200
17718 17727 17725 1 120.0200517 532.790560
17718 17727 17728 1 119.8800511 375.723200
17725 17727 17728 1 119.8800511 375.723200
17720 17729 17730 1 115.00000 209.200000
17731 17732 17733 1 119.8800511 375.723200
17731 17732 17741 1 119.8800511 375.723200
17733 17732 17741 1 120.0200517 532.790560
17732 17733 17734 1 121.3800518 83.010560
17732 17733 17735 1 120.0200517 532.790560
17734 17733 17735 1 121.3800518 83.010560
6219 17734 10329 1 109.50000 418.400000
6219 17734 17733 1 103.70004 836.800000
6219 17734 17743 1 109.50000 418.400000
10329 17734 17733 1 103.70004 836.800000
10329 17734 17743 1 109.50000 418.400000
17733 17734 17743 1 103.70004 1034.033760
17733 17735 17736 1 119.8800511 375.723200
17733 17735 17737 1 120.0200517 532.790560
17736 17735 17737 1 119.8800511 375.723200
17735 17737 17738 1 119.8800511 375.723200
17735 17737 17739 1 120.0200517 532.790560
17738 17737 17739 1 119.8800511 375.723200
17737 17739 17740 1 119.8800511 375.723200
17737 17739 17741 1 120.0200517 532.790560
17740 17739 17741 1 119.8800511 375.723200
17732 17741 17739 1 120.0200517 532.790560
17732 17741 17742 1 119.8800511 375.723200
17739 17741 17742 1 119.8800511 375.723200
17734 17743 17744 1 115.00000 209.200000
17745 17746 17747 1 119.8800511 375.723200
17745 17746 17755 1 119.8800511 375.723200
17747 17746 17755 1 120.0200517 532.790560
17746 17747 17748 1 121.3800518 83.010560
17746 17747 17749 1 120.0200517 532.790560
17748 17747 17749 1 121.3800518 83.010560
6642 17748 10330 1 109.50000 418.400000
6642 17748 17747 1 103.70004 836.800000
6642 17748 17757 1 109.50000 418.400000
10330 17748 17747 1 103.70004 836.800000
10330 17748 17757 1 109.50000 418.400000
17747 17748 17757 1 103.70004 1034.033760
17747 17749 17750 1 119.8800511 375.723200
17747 17749 17751 1 120.0200517 532.790560
17750 17749 17751 1 119.8800511 375.723200
17749 17751 17752 1 119.8800511 375.723200
17749 17751 17753 1 120.0200517 532.790560
17752 17751 17753 1 119.8800511 375.723200
17751 17753 17754 1 119.8800511 375.723200
17751 17753 17755 1 120.0200517 532.790560
17754 17753 17755 1 119.8800511 375.723200
17746 17755 17753 1 120.0200517 532.790560
17746 17755 17756 1 119.8800511 375.723200
17753 17755 17756 1 119.8800511 375.723200
17748 17757 17758 1 115.00000 209.200000
17759 17760 17761 1 119.8800511 375.723200
17759 17760 17769 1 119.8800511 375.723200
17761 17760 17769 1 120.0200517 532.790560
17760 17761 17762 1 121.3800518 83.010560
17760 17761 17763 1 120.0200517 532.790560
17762 17761 17763 1 121.3800518 83.010560
178 17762 6130 1 109.50000 418.400000
178 17762 17761 1 103.70004 836.800000
178 17762 17771 1 109.50000 418.400000
6130 17762 17761 1 103.70004 836.800000
6130 17762 17771 1 109.50000 418.400000
17761 17762 17771 1 103.70004 1034.033760
17761 17763 17764 1 119.8800511 375.723200
17761 17763 17765 1 120.0200517 532.790560
17764 17763 17765 1 119.8800511 375.723200
17763 17765 17766 1 119.8800511 375.723200
17763 17765 17767 1 120.0200517 532.790560
17766 17765 17767 1 119.8800511 375.723200
17765 17767 17768 1 119.8800511 375.723200
17765 17767 17769 1 120.0200517 532.790560
17768 17767 17769 1 119.8800511 375.723200
17760 17769 17767 1 120.0200517 532.790560
17760 17769 17770 1 119.8800511 375.723200
17767 17769 17770 1 119.8800511 375.723200
17762 17771 17772 1 115.00000 209.200000
17773 17774 17775 1 119.8800511 375.723200
17773 17774 17783 1 119.8800511 375.723200
17775 17774 17783 1 120.0200517 532.790560
17774 17775 17776 1 121.3800518 83.010560
17774 17775 17777 1 120.0200517 532.790560
17776 17775 17777 1 121.3800518 83.010560
5333 17776 8617 1 109.50000 418.400000
5333 17776 17775 1 103.70004 836.800000
5333 17776 17785 1 109.50000 418.400000
8617 17776 17775 1 103.70004 836.800000
8617 17776 17785 1 109.50000 418.400000
17775 17776 17785 1 103.70004 1034.033760
17775 17777 17778 1 119.8800511 375.723200
17775 17777 17779 1 120.0200517 532.790560
17778 17777 17779 1 119.8800511 375.723200
17777 17779 17780 1 119.8800511 375.723200
17777 17779 17781 1 120.0200517 532.790560
17780 17779 17781 1 119.8800511 375.723200
17779 17781 17782 1 119.8800511 375.723200
17779 17781 17783 1 120.0200517 532.790560
17782 17781 17783 1 119.8800511 375.723200
17774 17783 17781 1 120.0200517 532.790560
17774 17783 17784 1 119.8800511 375.723200
17781 17783 17784 1 119.8800511 375.723200
17776 17785 17786 1 115.00000 209.200000
17787 17788 17789 1 119.8800511 375.723200
17787 17788 17797 1 119.8800511 375.723200
17789 17788 17797 1 120.0200517 532.790560
17788 17789 17790 1 121.3800518 83.010560
17788 17789 17791 1 120.0200517 532.790560
17790 17789 17791 1 121.3800518 83.010560
1180 17790 2990 1 109.50000 418.400000
1180 17790 17789 1 103.70004 836.800000
1180 17790 17799 1 109.50000 418.400000
2990 17790 17789 1 103.70004 836.800000
2990 17790 17799 1 109.50000 418.400000
17789 17790 17799 1 103.70004 1034.033760
17789 17791 17792 1 119.8800511 375.723200
17789 17791 17793 1 120.0200517 532.790560
17792 17791 17793 1 119.8800511 375.723200
17791 17793 17794 1 119.8800511 375.723200
17791 17793 17795 1 120.0200517 532.790560
17794 17793 17795 1 119.8800511 375.723200
17793 17795 17796 1 119.8800511 375.723200
17793 17795 17797 1 120.0200517 532.790560
17796 17795 17797 1 119.8800511 375.723200
17788 17797 17795 1 120.0200517 532.790560
17788 17797 17798 1 119.8800511 375.723200
17795 17797 17798 1 119.8800511 375.723200
17790 17799 17800 1 115.00000 209.200000
17801 17802 17803 1 119.8800511 375.723200
17801 17802 17811 1 119.8800511 375.723200
17803 17802 17811 1 120.0200517 532.790560
17802 17803 17804 1 121.3800518 83.010560
17802 17803 17805 1 120.0200517 532.790560
17804 17803 17805 1 121.3800518 83.010560
9456 17804 10397 1 109.50000 418.400000
9456 17804 17803 1 103.70004 836.800000
9456 17804 17813 1 109.50000 418.400000
10397 17804 17803 1 103.70004 836.800000
10397 17804 17813 1 109.50000 418.400000
17803 17804 17813 1 103.70004 1034.033760
17803 17805 17806 1 119.8800511 375.723200
17803 17805 17807 1 120.0200517 532.790560
17806 17805 17807 1 119.8800511 375.723200
17805 17807 17808 1 119.8800511 375.723200
17805 17807 17809 1 120.0200517 532.790560
17808 17807 17809 1 119.8800511 375.723200
17807 17809 17810 1 119.8800511 375.723200
17807 17809 17811 1 120.0200517 532.790560
17810 17809 17811 1 119.8800511 375.723200
17802 17811 17809 1 120.0200517 532.790560
17802 17811 17812 1 119.8800511 375.723200
17809 17811 17812 1 119.8800511 375.723200
17804 17813 17814 1 115.00000 209.200000
17815 17816 17817 1 119.8800511 375.723200
17815 17816 17825 1 119.8800511 375.723200
17817 17816 17825 1 120.0200517 532.790560
17816 17817 17818 1 121.3800518 83.010560
17816 17817 17819 1 120.0200517 532.790560
17818 17817 17819 1 121.3800518 83.010560
6440 17818 6664 1 109.50000 418.400000
6440 17818 17817 1 103.70004 836.800000
6440 17818 17827 1 109.50000 418.400000
6664 17818 17817 1 103.70004 836.800000
6664 17818 17827 1 109.50000 418.400000
17817 17818 17827 1 103.70004 1034.033760
17817 17819 17820 1 119.8800511 375.723200
17817 17819 17821 1 120.0200517 532.790560
17820 17819 17821 1 119.8800511 375.723200
17819 17821 17822 1 119.8800511 375.723200
17819 17821 17823 1 120.0200517 532.790560
17822 17821 17823 1 119.8800511 375.723200
17821 17823 17824 1 119.8800511 375.723200
17821 17823 17825 1 120.0200517 532.790560
17824 17823 17825 1 119.8800511 375.723200
17816 17825 17823 1 120.0200517 532.790560
17816 17825 17826 1 119.8800511 375.723200
17823 17825 17826 1 119.8800511 375.723200
17818 17827 17828 1 115.00000 209.200000
17829 17830 17831 1 119.8800511 375.723200
17829 17830 17839 1 119.8800511 375.723200
17831 17830 17839 1 120.0200517 532.790560
17830 17831 17832 1 121.3800518 83.010560
17830 17831 17833 1 120.0200517 532.790560
17832 17831 17833 1 121.3800518 83.010560
8363 17832 9558 1 109.50000 418.400000
8363 17832 17831 1 103.70004 836.800000
8363 17832 17841 1 109.50000 418.400000
9558 17832 17831 1 103.70004 836.800000
9558 17832 17841 1 109.50000 418.400000
17831 17832 17841 1 103.70004 1034.033760
17831 17833 17834 1 119.8800511 375.723200
17831 17833 17835 1 120.0200517 532.790560
17834 17833 17835 1 119.8800511 375.723200
17833 17835 17836 1 119.8800511 375.723200
17833 17835 17837 1 120.0200517 532.790560
17836 17835 17837 1 119.8800511 375.723200
17835 17837 17838 1 119.8800511 375.723200
17835 17837 17839 1 120.0200517 532.790560
17838 17837 17839 1 119.8800511 375.723200
17830 17839 17837 1 120.0200517 532.790560
17830 17839 17840 1 119.8800511 375.723200
17837 17839 17840 1 119.8800511 375.723200
17832 17841 17842 1 115.00000 209.200000
17843 17844 17845 1 119.8800511 375.723200
17843 17844 17853 1 119.8800511 375.723200
17845 17844 17853 1 120.0200517 532.790560
17844 17845 17846 1 121.3800518 83.010560
17844 17845 17847 1 120.0200517 532.790560
17846 17845 17847 1 121.3800518 83.010560
3560 17846 8785 1 109.50000 418.400000
3560 17846 17845 1 103.70004 836.800000
3560 17846 17855 1 109.50000 418.400000
8785 17846 17845 1 103.70004 836.800000
8785 17846 17855 1 109.50000 418.400000
17845 17846 17855 1 103.70004 1034.033760
17845 17847 17848 1 119.8800511 375.723200
17845 17847 17849 1 120.0200517 532.790560
17848 17847 17849 1 119.8800511 375.723200
17847 17849 17850 1 119.8800511 375.723200
17847 17849 17851 1 120.0200517 532.790560
17850 17849 17851 1 119.8800511 375.723200
17849 17851 17852 1 119.8800511 375.723200
17849 17851 17853 1 120.0200517 532.790560
17852 17851 17853 1 119.8800511 375.723200
17844 17853 17851 1 120.0200517 532.790560
17844 17853 17854 1 119.8800511 375.723200
17851 17853 17854 1 119.8800511 375.723200
17846 17855 17856 1 115.00000 209.200000
17857 17858 17859 1 119.8800511 375.723200
17857 17858 17867 1 119.8800511 375.723200
17859 17858 17867 1 120.0200517 532.790560
17858 17859 17860 1 121.3800518 83.010560
17858 17859 17861 1 120.0200517 532.790560
17860 17859 17861 1 121.3800518 83.010560
6235 17860 9622 1 109.50000 418.400000
6235 17860 17859 1 103.70004 836.800000
6235 17860 17869 1 109.50000 418.400000
9622 17860 17859 1 103.70004 836.800000
9622 17860 17869 1 109.50000 418.400000
17859 17860 17869 1 103.70004 1034.033760
17859 17861 17862 1 119.8800511 375.723200
17859 17861 17863 1 120.0200517 532.790560
17862 17861 17863 1 119.8800511 375.723200
17861 17863 17864 1 119.8800511 375.723200
17861 17863 17865 1 120.0200517 532.790560
17864 17863 17865 1 119.8800511 375.723200
17863 17865 17866 1 119.8800511 375.723200
17863 17865 17867 1 120.0200517 532.790560
17866 17865 17867 1 119.8800511 375.723200
17858 17867 17865 1 120.0200517 532.790560
17858 17867 17868 1 119.8800511 375.723200
17865 17867 17868 1 119.8800511 375.723200
17860 17869 17870 1 115.00000 209.200000
17871 17872 17873 1 119.8800511 375.723200
17871 17872 17881 1 119.8800511 375.723200
17873 17872 17881 1 120.0200517 532.790560
17872 17873 17874 1 121.3800518 83.010560
17872 17873 17875 1 120.0200517 532.790560
17874 17873 17875 1 121.3800518 83.010560
779 17874 9193 1 109.50000 418.400000
779 17874 17873 1 103.70004 836.800000
779 17874 17883 1 109.50000 418.400000
9193 17874 17873 1 103.70004 836.800000
9193 17874 17883 1 109.50000 418.400000
17873 17874 17883 1 103.70004 1034.033760
17873 17875 17876 1 119.8800511 375.723200
17873 17875 17877 1 120.0200517 532.790560
17876 17875 17877 1 119.8800511 375.723200
17875 17877 17878 1 119.8800511 375.723200
17875 17877 17879 1 120.0200517 532.790560
17878 17877 17879 1 119.8800511 375.723200
17877 17879 17880 1 119.8800511 375.723200
17877 17879 17881 1 120.0200517 532.790560
17880 17879 17881 1 119.8800511 375.723200
17872 17881 17879 1 120.0200517 532.790560
17872 17881 17882 1 119.8800511 375.723200
17879 17881 17882 1 119.8800511 375.723200
17874 17883 17884 1 115.00000 209.200000
17885 17886 17887 1 119.8800511 375.723200
17885 17886 17895 1 119.8800511 375.723200
17887 17886 17895 1 120.0200517 532.790560
17886 17887 17888 1 121.3800518 83.010560
17886 17887 17889 1 120.0200517 532.790560
17888 17887 17889 1 121.3800518 83.010560
31 17888 10549 1 109.50000 418.400000
31 17888 17887 1 103.70004 836.800000
31 17888 17897 1 109.50000 418.400000
10549 17888 17887 1 103.70004 836.800000
10549 17888 17897 1 109.50000 418.400000
17887 17888 17897 1 103.70004 1034.033760
17887 17889 17890 1 119.8800511 375.723200
17887 17889 17891 1 120.0200517 532.790560
17890 17889 17891 1 119.8800511 375.723200
17889 17891 17892 1 119.8800511 375.723200
17889 17891 17893 1 120.0200517 532.790560
17892 17891 17893 1 119.8800511 375.723200
17891 17893 17894 1 119.8800511 375.723200
17891 17893 17895 1 120.0200517 532.790560
17894 17893 17895 1 119.8800511 375.723200
17886 17895 17893 1 120.0200517 532.790560
17886 17895 17896 1 119.8800511 375.723200
17893 17895 17896 1 119.8800511 375.723200
17888 17897 17898 1 115.00000 209.200000
17899 17900 17901 1 119.8800511 375.723200
17899 17900 17909 1 119.8800511 375.723200
17901 17900 17909 1 120.0200517 532.790560
17900 17901 17902 1 121.3800518 83.010560
17900 17901 17903 1 120.0200517 532.790560
17902 17901 17903 1 121.3800518 83.010560
514 17902 3976 1 109.50000 418.400000
514 17902 17901 1 103.70004 836.800000
514 17902 17911 1 109.50000 418.400000
3976 17902 17901 1 103.70004 836.800000
3976 17902 17911 1 109.50000 418.400000
17901 17902 17911 1 103.70004 1034.033760
17901 17903 17904 1 119.8800511 375.723200
17901 17903 17905 1 120.0200517 532.790560
17904 17903 17905 1 119.8800511 375.723200
17903 17905 17906 1 119.8800511 375.723200
17903 17905 17907 1 120.0200517 532.790560
17906 17905 17907 1 119.8800511 375.723200
17905 17907 17908 1 119.8800511 375.723200
17905 17907 17909 1 120.0200517 532.790560
17908 17907 17909 1 119.8800511 375.723200
17900 17909 17907 1 120.0200517 532.790560
17900 17909 17910 1 119.8800511 375.723200
17907 17909 17910 1 119.8800511 375.723200
17902 17911 17912 1 115.00000 209.200000
17913 17914 17915 1 119.8800511 375.723200
17913 17914 17923 1 119.8800511 375.723200
17915 17914 17923 1 120.0200517 532.790560
17914 17915 17916 1 121.3800518 83.010560
17914 17915 17917 1 120.0200517 532.790560
17916 17915 17917 1 121.3800518 83.010560
2839 17916 9765 1 109.50000 418.400000
2839 17916 17915 1 103.70004 836.800000
2839 17916 17925 1 109.50000 418.400000
9765 17916 17915 1 103.70004 836.800000
9765 17916 17925 1 109.50000 418.400000
17915 17916 17925 1 103.70004 1034.033760
17915 17917 17918 1 119.8800511 375.723200
17915 17917 17919 1 120.0200517 532.790560
17918 17917 17919 1 119.8800511 375.723200
17917 17919 17920 1 119.8800511 375.723200
17917 17919 17921 1 120.0200517 532.790560
17920 17919 17921 1 119.8800511 375.723200
17919 17921 17922 1 119.8800511 375.723200
17919 17921 17923 1 120.0200517 532.790560
17922 17921 17923 1 119.8800511 375.723200
17914 17923 17921 1 120.0200517 532.790560
17914 17923 17924 1 119.8800511 375.723200
17921 17923 17924 1 119.8800511 375.723200
17916 17925 17926 1 115.00000 209.200000
17927 17928 17929 1 119.8800511 375.723200
17927 17928 17937 1 119.8800511 375.723200
17929 17928 17937 1 120.0200517 532.790560
17928 17929 17930 1 121.3800518 83.010560
17928 17929 17931 1 120.0200517 532.790560
17930 17929 17931 1 121.3800518 83.010560
4050 17930 10033 1 109.50000 418.400000
4050 17930 17929 1 103.70004 836.800000
4050 17930 17939 1 109.50000 418.400000
10033 17930 17929 1 103.70004 836.800000
10033 17930 17939 1 109.50000 418.400000
17929 17930 17939 1 103.70004 1034.033760
17929 17931 17932 1 119.8800511 375.723200
17929 17931 17933 1 120.0200517 532.790560
17932 17931 17933 1 119.8800511 375.723200
17931 17933 17934 1 119.8800511 375.723200
17931 17933 17935 1 120.0200517 532.790560
17934 17933 17935 1 119.8800511 375.723200
17933 17935 17936 1 119.8800511 375.723200
17933 17935 17937 1 120.0200517 532.790560
17936 17935 17937 1 119.8800511 375.723200
17928 17937 17935 1 120.0200517 532.790560
17928 17937 17938 1 119.8800511 375.723200
17935 17937 17938 1 119.8800511 375.723200
17930 17939 17940 1 115.00000 209.200000
17941 17942 17943 1 119.8800511 375.723200
17941 17942 17951 1 119.8800511 375.723200
17943 17942 17951 1 120.0200517 532.790560
17942 17943 17944 1 121.3800518 83.010560
17942 17943 17945 1 120.0200517 532.790560
17944 17943 17945 1 121.3800518 83.010560
416 17944 7933 1 109.50000 418.400000
416 17944 17943 1 103.70004 836.800000
416 17944 17953 1 109.50000 418.400000
7933 17944 17943 1 103.70004 836.800000
7933 17944 17953 1 109.50000 418.400000
17943 17944 17953 1 103.70004 1034.033760
17943 17945 17946 1 119.8800511 375.723200
17943 17945 17947 1 120.0200517 532.790560
17946 17945 17947 1 119.8800511 375.723200
17945 17947 17948 1 119.8800511 375.723200
17945 17947 17949 1 120.0200517 532.790560
17948 17947 17949 1 119.8800511 375.723200
17947 17949 17950 1 119.8800511 375.723200
17947 17949 17951 1 120.0200517 532.790560
17950 17949 17951 1 119.8800511 375.723200
17942 17951 17949 1 120.0200517 532.790560
17942 17951 17952 1 119.8800511 375.723200
17949 17951 17952 1 119.8800511 375.723200
17944 17953 17954 1 115.00000 209.200000
17955 17956 17957 1 119.8800511 375.723200
17955 17956 17965 1 119.8800511 375.723200
17957 17956 17965 1 120.0200517 532.790560
17956 17957 17958 1 121.3800518 83.010560
17956 17957 17959 1 120.0200517 532.790560
17958 17957 17959 1 121.3800518 83.010560
10409 17958 10694 1 109.50000 418.400000
10409 17958 17957 1 103.70004 836.800000
10409 17958 17967 1 109.50000 418.400000
10694 17958 17957 1 103.70004 836.800000
10694 17958 17967 1 109.50000 418.400000
17957 17958 17967 1 103.70004 1034.033760
17957 17959 17960 1 119.8800511 375.723200
17957 17959 17961 1 120.0200517 532.790560
17960 17959 17961 1 119.8800511 375.723200
17959 17961 17962 1 119.8800511 375.723200
17959 17961 17963 1 120.0200517 532.790560
17962 17961 17963 1 119.8800511 375.723200
17961 17963 17964 1 119.8800511 375.723200
17961 17963 17965 1 120.0200517 532.790560
17964 17963 17965 1 119.8800511 375.723200
17956 17965 17963 1 120.0200517 532.790560
17956 17965 17966 1 119.8800511 375.723200
17963 17965 17966 1 119.8800511 375.723200
17958 17967 17968 1 115.00000 209.200000
17969 17970 17971 1 119.8800511 375.723200
17969 17970 17979 1 119.8800511 375.723200
17971 17970 17979 1 120.0200517 532.790560
17970 17971 17972 1 121.3800518 83.010560
17970 17971 17973 1 120.0200517 532.790560
17972 17971 17973 1 121.3800518 83.010560
8938 17972 9991 1 109.50000 418.400000
8938 17972 17971 1 103.70004 836.800000
8938 17972 17981 1 109.50000 418.400000
9991 17972 17971 1 103.70004 836.800000
9991 17972 17981 1 109.50000 418.400000
17971 17972 17981 1 103.70004 1034.033760
17971 17973 17974 1 119.8800511 375.723200
17971 17973 17975 1 120.0200517 532.790560
17974 17973 17975 1 119.8800511 375.723200
17973 17975 17976 1 119.8800511 375.723200
17973 17975 17977 1 120.0200517 532.790560
17976 17975 17977 1 119.8800511 375.723200
17975 17977 17978 1 119.8800511 375.723200
17975 17977 17979 1 120.0200517 532.790560
17978 17977 17979 1 119.8800511 375.723200
17970 17979 17977 1 120.0200517 532.790560
17970 17979 17980 1 119.8800511 375.723200
17977 17979 17980 1 119.8800511 375.723200
17972 17981 17982 1 115.00000 209.200000
17983 17984 17985 1 119.8800511 375.723200
17983 17984 17993 1 119.8800511 375.723200
17985 17984 17993 1 120.0200517 532.790560
17984 17985 17986 1 121.3800518 83.010560
17984 17985 17987 1 120.0200517 532.790560
17986 17985 17987 1 121.3800518 83.010560
1382 17986 10701 1 109.50000 418.400000
1382 17986 17985 1 103.70004 836.800000
1382 17986 17995 1 109.50000 418.400000
10701 17986 17985 1 103.70004 836.800000
10701 17986 17995 1 109.50000 418.400000
17985 17986 17995 1 103.70004 1034.033760
17985 17987 17988 1 119.8800511 375.723200
17985 17987 17989 1 120.0200517 532.790560
17988 17987 17989 1 119.8800511 375.723200
17987 17989 17990 1 119.8800511 375.723200
17987 17989 17991 1 120.0200517 532.790560
17990 17989 17991 1 119.8800511 375.723200
17989 17991 17992 1 119.8800511 375.723200
17989 17991 17993 1 120.0200517 532.790560
17992 17991 17993 1 119.8800511 375.723200
17984 17993 17991 1 120.0200517 532.790560
17984 17993 17994 1 119.8800511 375.723200
17991 17993 17994 1 119.8800511 375.723200
17986 17995 17996 1 115.00000 209.200000
17997 17998 17999 1 119.8800511 375.723200
17997 17998 18007 1 119.8800511 375.723200
17999 17998 18007 1 120.0200517 532.790560
17998 17999 18000 1 121.3800518 83.010560
17998 17999 18001 1 120.0200517 532.790560
18000 17999 18001 1 121.3800518 83.010560
2100 18000 5001 1 109.50000 418.400000
2100 18000 17999 1 103.70004 836.800000
2100 18000 18009 1 109.50000 418.400000
5001 18000 17999 1 103.70004 836.800000
5001 18000 18009 1 109.50000 418.400000
17999 18000 18009 1 103.70004 1034.033760
17999 18001 18002 1 119.8800511 375.723200
17999 18001 18003 1 120.0200517 532.790560
18002 18001 18003 1 119.8800511 375.723200
18001 18003 18004 1 119.8800511 375.723200
18001 18003 18005 1 120.0200517 532.790560
18004 18003 18005 1 119.8800511 375.723200
18003 18005 18006 1 119.8800511 375.723200
18003 18005 18007 1 120.0200517 532.790560
18006 18005 18007 1 119.8800511 375.723200
17998 18007 18005 1 120.0200517 532.790560
17998 18007 18008 1 119.8800511 375.723200
18005 18007 18008 1 119.8800511 375.723200
18000 18009 18010 1 115.00000 209.200000
18011 18012 18013 1 119.8800511 375.723200
18011 18012 18021 1 119.8800511 375.723200
18013 18012 18021 1 120.0200517 532.790560
18012 18013 18014 1 121.3800518 83.010560
18012 18013 18015 1 120.0200517 532.790560
18014 18013 18015 1 121.3800518 83.010560
1969 18014 3039 1 109.50000 418.400000
1969 18014 18013 1 103.70004 836.800000
1969 18014 18023 1 109.50000 418.400000
3039 18014 18013 1 103.70004 836.800000
3039 18014 18023 1 109.50000 418.400000
18013 18014 18023 1 103.70004 1034.033760
18013 18015 18016 1 119.8800511 375.723200
18013 18015 18017 1 120.0200517 532.790560
18016 18015 18017 1 119.8800511 375.723200
18015 18017 18018 1 119.8800511 375.723200
18015 18017 18019 1 120.0200517 532.790560
18018 18017 18019 1 119.8800511 375.723200
18017 18019 18020 1 119.8800511 375.723200
18017 18019 18021 1 120.0200517 532.790560
18020 18019 18021 1 119.8800511 375.723200
18012 18021 18019 1 120.0200517 532.790560
18012 18021 18022 1 119.8800511 375.723200
18019 18021 18022 1 119.8800511 375.723200
18014 18023 18024 1 115.00000 209.200000
18025 18026 18027 1 119.8800511 375.723200
18025 18026 18035 1 119.8800511 375.723200
18027 18026 18035 1 120.0200517 532.790560
18026 18027 18028 1 121.3800518 83.010560
18026 18027 18029 1 120.0200517 532.790560
18028 18027 18029 1 121.3800518 83.010560
6417 18028 10082 1 109.50000 418.400000
6417 18028 18027 1 103.70004 836.800000
6417 18028 18037 1 109.50000 418.400000
10082 18028 18027 1 103.70004 836.800000
10082 18028 18037 1 109.50000 418.400000
18027 18028 18037 1 103.70004 1034.033760
18027 18029 18030 1 119.8800511 375.723200
18027 18029 18031 1 120.0200517 532.790560
18030 18029 18031 1 119.8800511 375.723200
18029 18031 18032 1 119.8800511 375.723200
18029 18031 18033 1 120.0200517 532.790560
18032 18031 18033 1 119.8800511 375.723200
18031 18033 18034 1 119.8800511 375.723200
18031 18033 18035 1 120.0200517 532.790560
18034 18033 18035 1 119.8800511 375.723200
18026 18035 18033 1 120.0200517 532.790560
18026 18035 18036 1 119.8800511 375.723200
18033 18035 18036 1 119.8800511 375.723200
18028 18037 18038 1 115.00000 209.200000
18039 18040 18041 1 119.8800511 375.723200
18039 18040 18049 1 119.8800511 375.723200
18041 18040 18049 1 120.0200517 532.790560
18040 18041 18042 1 121.3800518 83.010560
18040 18041 18043 1 120.0200517 532.790560
18042 18041 18043 1 121.3800518 83.010560
9189 18042 10440 1 109.50000 418.400000
9189 18042 18041 1 103.70004 836.800000
9189 18042 18051 1 109.50000 418.400000
10440 18042 18041 1 103.70004 836.800000
10440 18042 18051 1 109.50000 418.400000
18041 18042 18051 1 103.70004 1034.033760
18041 18043 18044 1 119.8800511 375.723200
18041 18043 18045 1 120.0200517 532.790560
18044 18043 18045 1 119.8800511 375.723200
18043 18045 18046 1 119.8800511 375.723200
18043 18045 18047 1 120.0200517 532.790560
18046 18045 18047 1 119.8800511 375.723200
18045 18047 18048 1 119.8800511 375.723200
18045 18047 18049 1 120.0200517 532.790560
18048 18047 18049 1 119.8800511 375.723200
18040 18049 18047 1 120.0200517 532.790560
18040 18049 18050 1 119.8800511 375.723200
18047 18049 18050 1 119.8800511 375.723200
18042 18051 18052 1 115.00000 209.200000
18053 18054 18055 1 119.8800511 375.723200
18053 18054 18063 1 119.8800511 375.723200
18055 18054 18063 1 120.0200517 532.790560
18054 18055 18056 1 121.3800518 83.010560
18054 18055 18057 1 120.0200517 532.790560
18056 18055 18057 1 121.3800518 83.010560
1327 18056 10140 1 109.50000 418.400000
1327 18056 18055 1 103.70004 836.800000
1327 18056 18065 1 109.50000 418.400000
10140 18056 18055 1 103.70004 836.800000
10140 18056 18065 1 109.50000 418.400000
18055 18056 18065 1 103.70004 1034.033760
18055 18057 18058 1 119.8800511 375.723200
18055 18057 18059 1 120.0200517 532.790560
18058 18057 18059 1 119.8800511 375.723200
18057 18059 18060 1 119.8800511 375.723200
18057 18059 18061 1 120.0200517 532.790560
18060 18059 18061 1 119.8800511 375.723200
18059 18061 18062 1 119.8800511 375.723200
18059 18061 18063 1 120.0200517 532.790560
18062 18061 18063 1 119.8800511 375.723200
18054 18063 18061 1 120.0200517 532.790560
18054 18063 18064 1 119.8800511 375.723200
18061 18063 18064 1 119.8800511 375.723200
18056 18065 18066 1 115.00000 209.200000
18067 18068 18069 1 119.8800511 375.723200
18067 18068 18077 1 119.8800511 375.723200
18069 18068 18077 1 120.0200517 532.790560
18068 18069 18070 1 121.3800518 83.010560
18068 18069 18071 1 120.0200517 532.790560
18070 18069 18071 1 121.3800518 83.010560
1259 18070 10795 1 109.50000 418.400000
1259 18070 18069 1 103.70004 836.800000
1259 18070 18079 1 109.50000 418.400000
10795 18070 18069 1 103.70004 836.800000
10795 18070 18079 1 109.50000 418.400000
18069 18070 18079 1 103.70004 1034.033760
18069 18071 18072 1 119.8800511 375.723200
18069 18071 18073 1 120.0200517 532.790560
18072 18071 18073 1 119.8800511 375.723200
18071 18073 18074 1 119.8800511 375.723200
18071 18073 18075 1 120.0200517 532.790560
18074 18073 18075 1 119.8800511 375.723200
18073 18075 18076 1 119.8800511 375.723200
18073 18075 18077 1 120.0200517 532.790560
18076 18075 18077 1 119.8800511 375.723200
18068 18077 18075 1 120.0200517 532.790560
18068 18077 18078 1 119.8800511 375.723200
18075 18077 18078 1 119.8800511 375.723200
18070 18079 18080 1 115.00000 209.200000
18081 18082 18083 1 119.8800511 375.723200
18081 18082 18091 1 119.8800511 375.723200
18083 18082 18091 1 120.0200517 532.790560
18082 18083 18084 1 121.3800518 83.010560
18082 18083 18085 1 120.0200517 532.790560
18084 18083 18085 1 121.3800518 83.010560
6835 18084 8634 1 109.50000 418.400000
6835 18084 18083 1 103.70004 836.800000
6835 18084 18093 1 109.50000 418.400000
8634 18084 18083 1 103.70004 836.800000
8634 18084 18093 1 109.50000 418.400000
18083 18084 18093 1 103.70004 1034.033760
18083 18085 18086 1 119.8800511 375.723200
18083 18085 18087 1 120.0200517 532.790560
18086 18085 18087 1 119.8800511 375.723200
18085 18087 18088 1 119.8800511 375.723200
18085 18087 18089 1 120.0200517 532.790560
18088 18087 18089 1 119.8800511 375.723200
18087 18089 18090 1 119.8800511 375.723200
18087 18089 18091 1 120.0200517 532.790560
18090 18089 18091 1 119.8800511 375.723200
18082 18091 18089 1 120.0200517 532.790560
18082 18091 18092 1 119.8800511 375.723200
18089 18091 18092 1 119.8800511 375.723200
18084 18093 18094 1 115.00000 209.200000
18095 18096 18097 1 119.8800511 375.723200
18095 18096 18105 1 119.8800511 375.723200
18097 18096 18105 1 120.0200517 532.790560
18096 18097 18098 1 121.3800518 83.010560
18096 18097 18099 1 120.0200517 532.790560
18098 18097 18099 1 121.3800518 83.010560
8234 18098 9048 1 109.50000 418.400000
8234 18098 18097 1 103.70004 836.800000
8234 18098 18107 1 109.50000 418.400000
9048 18098 18097 1 103.70004 836.800000
9048 18098 18107 1 109.50000 418.400000
18097 18098 18107 1 103.70004 1034.033760
18097 18099 18100 1 119.8800511 375.723200
18097 18099 18101 1 120.0200517 532.790560
18100 18099 18101 1 119.8800511 375.723200
18099 18101 18102 1 119.8800511 375.723200
18099 18101 18103 1 120.0200517 532.790560
18102 18101 18103 1 119.8800511 375.723200
18101 18103 18104 1 119.8800511 375.723200
18101 18103 18105 1 120.0200517 532.790560
18104 18103 18105 1 119.8800511 375.723200
18096 18105 18103 1 120.0200517 532.790560
18096 18105 18106 1 119.8800511 375.723200
18103 18105 18106 1 119.8800511 375.723200
18098 18107 18108 1 115.00000 209.200000
18109 18110 18111 1 119.8800511 375.723200
18109 18110 18119 1 119.8800511 375.723200
18111 18110 18119 1 120.0200517 532.790560
18110 18111 18112 1 121.3800518 83.010560
18110 18111 18113 1 120.0200517 532.790560
18112 18111 18113 1 121.3800518 83.010560
441 18112 7427 1 109.50000 418.400000
441 18112 18111 1 103.70004 836.800000
441 18112 18121 1 109.50000 418.400000
7427 18112 18111 1 103.70004 836.800000
7427 18112 18121 1 109.50000 418.400000
18111 18112 18121 1 103.70004 1034.033760
18111 18113 18114 1 119.8800511 375.723200
18111 18113 18115 1 120.0200517 532.790560
18114 18113 18115 1 119.8800511 375.723200
18113 18115 18116 1 119.8800511 375.723200
18113 18115 18117 1 120.0200517 532.790560
18116 18115 18117 1 119.8800511 375.723200
18115 18117 18118 1 119.8800511 375.723200
18115 18117 18119 1 120.0200517 532.790560
18118 18117 18119 1 119.8800511 375.723200
18110 18119 18117 1 120.0200517 532.790560
18110 18119 18120 1 119.8800511 375.723200
18117 18119 18120 1 119.8800511 375.723200
18112 18121 18122 1 115.00000 209.200000
18123 18124 18125 1 119.8800511 375.723200
18123 18124 18133 1 119.8800511 375.723200
18125 18124 18133 1 120.0200517 532.790560
18124 18125 18126 1 121.3800518 83.010560
18124 18125 18127 1 120.0200517 532.790560
18126 18125 18127 1 121.3800518 83.010560
8497 18126 9348 1 109.50000 418.400000
8497 18126 18125 1 103.70004 836.800000
8497 18126 18135 1 109.50000 418.400000
9348 18126 18125 1 103.70004 836.800000
9348 18126 18135 1 109.50000 418.400000
18125 18126 18135 1 103.70004 1034.033760
18125 18127 18128 1 119.8800511 375.723200
18125 18127 18129 1 120.0200517 532.790560
18128 18127 18129 1 119.8800511 375.723200
18127 18129 18130 1 119.8800511 375.723200
18127 18129 18131 1 120.0200517 532.790560
18130 18129 18131 1 119.8800511 375.723200
18129 18131 18132 1 119.8800511 375.723200
18129 18131 18133 1 120.0200517 532.790560
18132 18131 18133 1 119.8800511 375.723200
18124 18133 18131 1 120.0200517 532.790560
18124 18133 18134 1 119.8800511 375.723200
18131 18133 18134 1 119.8800511 375.723200
18126 18135 18136 1 115.00000 209.200000
18137 18138 18139 1 119.8800511 375.723200
18137 18138 18147 1 119.8800511 375.723200
18139 18138 18147 1 120.0200517 532.790560
18138 18139 18140 1 121.3800518 83.010560
18138 18139 18141 1 120.0200517 532.790560
18140 18139 18141 1 121.3800518 83.010560
4150 18140 8405 1 109.50000 418.400000
4150 18140 18139 1 103.70004 836.800000
4150 18140 18149 1 109.50000 418.400000
8405 18140 18139 1 103.70004 836.800000
8405 18140 18149 1 109.50000 418.400000
18139 18140 18149 1 103.70004 1034.033760
18139 18141 18142 1 119.8800511 375.723200
18139 18141 18143 1 120.0200517 532.790560
18142 18141 18143 1 119.8800511 375.723200
18141 18143 18144 1 119.8800511 375.723200
18141 18143 18145 1 120.0200517 532.790560
18144 18143 18145 1 119.8800511 375.723200
18143 18145 18146 1 119.8800511 375.723200
18143 18145 18147 1 120.0200517 532.790560
18146 18145 18147 1 119.8800511 375.723200
18138 18147 18145 1 120.0200517 532.790560
18138 18147 18148 1 119.8800511 375.723200
18145 18147 18148 1 119.8800511 375.723200
18140 18149 18150 1 115.00000 209.200000
18151 18152 18153 1 119.8800511 375.723200
18151 18152 18161 1 119.8800511 375.723200
18153 18152 18161 1 120.0200517 532.790560
18152 18153 18154 1 121.3800518 83.010560
18152 18153 18155 1 120.0200517 532.790560
18154 18153 18155 1 121.3800518 83.010560
3993 18154 8879 1 109.50000 418.400000
3993 18154 18153 1 103.70004 836.800000
3993 18154 18163 1 109.50000 418.400000
8879 18154 18153 1 103.70004 836.800000
8879 18154 18163 1 109.50000 418.400000
18153 18154 18163 1 103.70004 1034.033760
18153 18155 18156 1 119.8800511 375.723200
18153 18155 18157 1 120.0200517 532.790560
18156 18155 18157 1 119.8800511 375.723200
18155 18157 18158 1 119.8800511 375.723200
18155 18157 18159 1 120.0200517 532.790560
18158 18157 18159 1 119.8800511 375.723200
18157 18159 18160 1 119.8800511 375.723200
18157 18159 18161 1 120.0200517 532.790560
18160 18159 18161 1 119.8800511 375.723200
18152 18161 18159 1 120.0200517 532.790560
18152 18161 18162 1 119.8800511 375.723200
18159 18161 18162 1 119.8800511 375.723200
18154 18163 18164 1 115.00000 209.200000
18165 18166 18167 1 119.8800511 375.723200
18165 18166 18175 1 119.8800511 375.723200
18167 18166 18175 1 120.0200517 532.790560
18166 18167 18168 1 121.3800518 83.010560
18166 18167 18169 1 120.0200517 532.790560
18168 18167 18169 1 121.3800518 83.010560
10868 18168 10869 1 109.50000 418.400000
10868 18168 18167 1 103.70004 836.800000
10868 18168 18177 1 109.50000 418.400000
10869 18168 18167 1 103.70004 836.800000
10869 18168 18177 1 109.50000 418.400000
18167 18168 18177 1 103.70004 1034.033760
18167 18169 18170 1 119.8800511 375.723200
18167 18169 18171 1 120.0200517 532.790560
18170 18169 18171 1 119.8800511 375.723200
18169 18171 18172 1 119.8800511 375.723200
18169 18171 18173 1 120.0200517 532.790560
18172 18171 18173 1 119.8800511 375.723200
18171 18173 18174 1 119.8800511 375.723200
18171 18173 18175 1 120.0200517 532.790560
18174 18173 18175 1 119.8800511 375.723200
18166 18175 18173 1 120.0200517 532.790560
18166 18175 18176 1 119.8800511 375.723200
18173 18175 18176 1 119.8800511 375.723200
18168 18177 18178 1 115.00000 209.200000
18179 18180 18181 1 119.8800511 375.723200
18179 18180 18189 1 119.8800511 375.723200
18181 18180 18189 1 120.0200517 532.790560
18180 18181 18182 1 121.3800518 83.010560
18180 18181 18183 1 120.0200517 532.790560
18182 18181 18183 1 121.3800518 83.010560
10433 18182 10815 1 109.50000 418.400000
10433 18182 18181 1 103.70004 836.800000
10433 18182 18191 1 109.50000 418.400000
10815 18182 18181 1 103.70004 836.800000
10815 18182 18191 1 109.50000 418.400000
18181 18182 18191 1 103.70004 1034.033760
18181 18183 18184 1 119.8800511 375.723200
18181 18183 18185 1 120.0200517 532.790560
18184 18183 18185 1 119.8800511 375.723200
18183 18185 18186 1 119.8800511 375.723200
18183 18185 18187 1 120.0200517 532.790560
18186 18185 18187 1 119.8800511 375.723200
18185 18187 18188 1 119.8800511 375.723200
18185 18187 18189 1 120.0200517 532.790560
18188 18187 18189 1 119.8800511 375.723200
18180 18189 18187 1 120.0200517 532.790560
18180 18189 18190 1 119.8800511 375.723200
18187 18189 18190 1 119.8800511 375.723200
18182 18191 18192 1 115.00000 209.200000
18193 18194 18195 1 119.8800511 375.723200
18193 18194 18203 1 119.8800511 375.723200
18195 18194 18203 1 120.0200517 532.790560
18194 18195 18196 1 121.3800518 83.010560
18194 18195 18197 1 120.0200517 532.790560
18196 18195 18197 1 121.3800518 83.010560
6303 18196 9852 1 109.50000 418.400000
6303 18196 18195 1 103.70004 836.800000
6303 18196 18205 1 109.50000 418.400000
9852 18196 18195 1 103.70004 836.800000
9852 18196 18205 1 109.50000 418.400000
18195 18196 18205 1 103.70004 1034.033760
18195 18197 18198 1 119.8800511 375.723200
18195 18197 18199 1 120.0200517 532.790560
18198 18197 18199 1 119.8800511 375.723200
18197 18199 18200 1 119.8800511 375.723200
18197 18199 18201 1 120.0200517 532.790560
18200 18199 18201 1 119.8800511 375.723200
18199 18201 18202 1 119.8800511 375.723200
18199 18201 18203 1 120.0200517 532.790560
18202 18201 18203 1 119.8800511 375.723200
18194 18203 18201 1 120.0200517 532.790560
18194 18203 18204 1 119.8800511 375.723200
18201 18203 18204 1 119.8800511 375.723200
18196 18205 18206 1 115.00000 209.200000
18207 18208 18209 1 119.8800511 375.723200
18207 18208 18217 1 119.8800511 375.723200
18209 18208 18217 1 120.0200517 532.790560
18208 18209 18210 1 121.3800518 83.010560
18208 18209 18211 1 120.0200517 532.790560
18210 18209 18211 1 121.3800518 83.010560
7113 18210 9899 1 109.50000 418.400000
7113 18210 18209 1 103.70004 836.800000
7113 18210 18219 1 109.50000 418.400000
9899 18210 18209 1 103.70004 836.800000
9899 18210 18219 1 109.50000 418.400000
18209 18210 18219 1 103.70004 1034.033760
18209 18211 18212 1 119.8800511 375.723200
18209 18211 18213 1 120.0200517 532.790560
18212 18211 18213 1 119.8800511 375.723200
18211 18213 18214 1 119.8800511 375.723200
18211 18213 18215 1 120.0200517 532.790560
18214 18213 18215 1 119.8800511 375.723200
18213 18215 18216 1 119.8800511 375.723200
18213 18215 18217 1 120.0200517 532.790560
18216 18215 18217 1 119.8800511 375.723200
18208 18217 18215 1 120.0200517 532.790560
18208 18217 18218 1 119.8800511 375.723200
18215 18217 18218 1 119.8800511 375.723200
18210 18219 18220 1 115.00000 209.200000
18221 18222 18223 1 119.8800511 375.723200
18221 18222 18231 1 119.8800511 375.723200
18223 18222 18231 1 120.0200517 532.790560
18222 18223 18224 1 121.3800518 83.010560
18222 18223 18225 1 120.0200517 532.790560
18224 18223 18225 1 121.3800518 83.010560
3041 18224 6187 1 109.50000 418.400000
3041 18224 18223 1 103.70004 836.800000
3041 18224 18233 1 109.50000 418.400000
6187 18224 18223 1 103.70004 836.800000
6187 18224 18233 1 109.50000 418.400000
18223 18224 18233 1 103.70004 1034.033760
18223 18225 18226 1 119.8800511 375.723200
18223 18225 18227 1 120.0200517 532.790560
18226 18225 18227 1 119.8800511 375.723200
18225 18227 18228 1 119.8800511 375.723200
18225 18227 18229 1 120.0200517 532.790560
18228 18227 18229 1 119.8800511 375.723200
18227 18229 18230 1 119.8800511 375.723200
18227 18229 18231 1 120.0200517 532.790560
18230 18229 18231 1 119.8800511 375.723200
18222 18231 18229 1 120.0200517 532.790560
18222 18231 18232 1 119.8800511 375.723200
18229 18231 18232 1 119.8800511 375.723200
18224 18233 18234 1 115.00000 209.200000
18235 18236 18237 1 119.8800511 375.723200
18235 18236 18245 1 119.8800511 375.723200
18237 18236 18245 1 120.0200517 532.790560
18236 18237 18238 1 121.3800518 83.010560
18236 18237 18239 1 120.0200517 532.790560
18238 18237 18239 1 121.3800518 83.010560
6939 18238 9172 1 109.50000 418.400000
6939 18238 18237 1 103.70004 836.800000
6939 18238 18247 1 109.50000 418.400000
9172 18238 18237 1 103.70004 836.800000
9172 18238 18247 1 109.50000 418.400000
18237 18238 18247 1 103.70004 1034.033760
18237 18239 18240 1 119.8800511 375.723200
18237 18239 18241 1 120.0200517 532.790560
18240 18239 18241 1 119.8800511 375.723200
18239 18241 18242 1 119.8800511 375.723200
18239 18241 18243 1 120.0200517 532.790560
18242 18241 18243 1 119.8800511 375.723200
18241 18243 18244 1 119.8800511 375.723200
18241 18243 18245 1 120.0200517 532.790560
18244 18243 18245 1 119.8800511 375.723200
18236 18245 18243 1 120.0200517 532.790560
18236 18245 18246 1 119.8800511 375.723200
18243 18245 18246 1 119.8800511 375.723200
18238 18247 18248 1 115.00000 209.200000
18249 18250 18251 1 119.8800511 375.723200
18249 18250 18259 1 119.8800511 375.723200
18251 18250 18259 1 120.0200517 532.790560
18250 18251 18252 1 121.3800518 83.010560
18250 18251 18253 1 120.0200517 532.790560
18252 18251 18253 1 121.3800518 83.010560
1684 18252 5566 1 109.50000 418.400000
1684 18252 18251 1 103.70004 836.800000
1684 18252 18261 1 109.50000 418.400000
5566 18252 18251 1 103.70004 836.800000
5566 18252 18261 1 109.50000 418.400000
18251 18252 18261 1 103.70004 1034.033760
18251 18253 18254 1 119.8800511 375.723200
18251 18253 18255 1 120.0200517 532.790560
18254 18253 18255 1 119.8800511 375.723200
18253 18255 18256 1 119.8800511 375.723200
18253 18255 18257 1 120.0200517 532.790560
18256 18255 18257 1 119.8800511 375.723200
18255 18257 18258 1 119.8800511 375.723200
18255 18257 18259 1 120.0200517 532.790560
18258 18257 18259 1 119.8800511 375.723200
18250 18259 18257 1 120.0200517 532.790560
18250 18259 18260 1 119.8800511 375.723200
18257 18259 18260 1 119.8800511 375.723200
18252 18261 18262 1 115.00000 209.200000
18263 18264 18265 1 119.8800511 375.723200
18263 18264 18273 1 119.8800511 375.723200
18265 18264 18273 1 120.0200517 532.790560
18264 18265 18266 1 121.3800518 83.010560
18264 18265 18267 1 120.0200517 532.790560
18266 18265 18267 1 121.3800518 83.010560
2009 18266 10063 1 109.50000 418.400000
2009 18266 18265 1 103.70004 836.800000
2009 18266 18275 1 109.50000 418.400000
10063 18266 18265 1 103.70004 836.800000
10063 18266 18275 1 109.50000 418.400000
18265 18266 18275 1 103.70004 1034.033760
18265 18267 18268 1 119.8800511 375.723200
18265 18267 18269 1 120.0200517 532.790560
18268 18267 18269 1 119.8800511 375.723200
18267 18269 18270 1 119.8800511 375.723200
18267 18269 18271 1 120.0200517 532.790560
18270 18269 18271 1 119.8800511 375.723200
18269 18271 18272 1 119.8800511 375.723200
18269 18271 18273 1 120.0200517 532.790560
18272 18271 18273 1 119.8800511 375.723200
18264 18273 18271 1 120.0200517 532.790560
18264 18273 18274 1 119.8800511 375.723200
18271 18273 18274 1 119.8800511 375.723200
18266 18275 18276 1 115.00000 209.200000
18277 18278 18279 1 119.8800511 375.723200
18277 18278 18287 1 119.8800511 375.723200
18279 18278 18287 1 120.0200517 532.790560
18278 18279 18280 1 121.3800518 83.010560
18278 18279 18281 1 120.0200517 532.790560
18280 18279 18281 1 121.3800518 83.010560
3347 18280 10567 1 109.50000 418.400000
3347 18280 18279 1 103.70004 836.800000
3347 18280 18289 1 109.50000 418.400000
10567 18280 18279 1 103.70004 836.800000
10567 18280 18289 1 109.50000 418.400000
18279 18280 18289 1 103.70004 1034.033760
18279 18281 18282 1 119.8800511 375.723200
18279 18281 18283 1 120.0200517 532.790560
18282 18281 18283 1 119.8800511 375.723200
18281 18283 18284 1 119.8800511 375.723200
18281 18283 18285 1 120.0200517 532.790560
18284 18283 18285 1 119.8800511 375.723200
18283 18285 18286 1 119.8800511 375.723200
18283 18285 18287 1 120.0200517 532.790560
18286 18285 18287 1 119.8800511 375.723200
18278 18287 18285 1 120.0200517 532.790560
18278 18287 18288 1 119.8800511 375.723200
18285 18287 18288 1 119.8800511 375.723200
18280 18289 18290 1 115.00000 209.200000
18291 18292 18293 1 119.8800511 375.723200
18291 18292 18301 1 119.8800511 375.723200
18293 18292 18301 1 120.0200517 532.790560
18292 18293 18294 1 121.3800518 83.010560
18292 18293 18295 1 120.0200517 532.790560
18294 18293 18295 1 121.3800518 83.010560
8412 18294 10940 1 109.50000 418.400000
8412 18294 18293 1 103.70004 836.800000
8412 18294 18303 1 109.50000 418.400000
10940 18294 18293 1 103.70004 836.800000
10940 18294 18303 1 109.50000 418.400000
18293 18294 18303 1 103.70004 1034.033760
18293 18295 18296 1 119.8800511 375.723200
18293 18295 18297 1 120.0200517 532.790560
18296 18295 18297 1 119.8800511 375.723200
18295 18297 18298 1 119.8800511 375.723200
18295 18297 18299 1 120.0200517 532.790560
18298 18297 18299 1 119.8800511 375.723200
18297 18299 18300 1 119.8800511 375.723200
18297 18299 18301 1 120.0200517 532.790560
18300 18299 18301 1 119.8800511 375.723200
18292 18301 18299 1 120.0200517 532.790560
18292 18301 18302 1 119.8800511 375.723200
18299 18301 18302 1 119.8800511 375.723200
18294 18303 18304 1 115.00000 209.200000
18305 18306 18307 1 119.8800511 375.723200
18305 18306 18315 1 119.8800511 375.723200
18307 18306 18315 1 120.0200517 532.790560
18306 18307 18308 1 121.3800518 83.010560
18306 18307 18309 1 120.0200517 532.790560
18308 18307 18309 1 121.3800518 83.010560
10829 18308 10957 1 109.50000 418.400000
10829 18308 18307 1 103.70004 836.800000
10829 18308 18317 1 109.50000 418.400000
10957 18308 18307 1 103.70004 836.800000
10957 18308 18317 1 109.50000 418.400000
18307 18308 18317 1 103.70004 1034.033760
18307 18309 18310 1 119.8800511 375.723200
18307 18309 18311 1 120.0200517 532.790560
18310 18309 18311 1 119.8800511 375.723200
18309 18311 18312 1 119.8800511 375.723200
18309 18311 18313 1 120.0200517 532.790560
18312 18311 18313 1 119.8800511 375.723200
18311 18313 18314 1 119.8800511 375.723200
18311 18313 18315 1 120.0200517 532.790560
18314 18313 18315 1 119.8800511 375.723200
18306 18315 18313 1 120.0200517 532.790560
18306 18315 18316 1 119.8800511 375.723200
18313 18315 18316 1 119.8800511 375.723200
18308 18317 18318 1 115.00000 209.200000
18319 18320 18321 1 119.8800511 375.723200
18319 18320 18329 1 119.8800511 375.723200
18321 18320 18329 1 120.0200517 532.790560
18320 18321 18322 1 121.3800518 83.010560
18320 18321 18323 1 120.0200517 532.790560
18322 18321 18323 1 121.3800518 83.010560
985 18322 10949 1 109.50000 418.400000
985 18322 18321 1 103.70004 836.800000
985 18322 18331 1 109.50000 418.400000
10949 18322 18321 1 103.70004 836.800000
10949 18322 18331 1 109.50000 418.400000
18321 18322 18331 1 103.70004 1034.033760
18321 18323 18324 1 119.8800511 375.723200
18321 18323 18325 1 120.0200517 532.790560
18324 18323 18325 1 119.8800511 375.723200
18323 18325 18326 1 119.8800511 375.723200
18323 18325 18327 1 120.0200517 532.790560
18326 18325 18327 1 119.8800511 375.723200
18325 18327 18328 1 119.8800511 375.723200
18325 18327 18329 1 120.0200517 532.790560
18328 18327 18329 1 119.8800511 375.723200
18320 18329 18327 1 120.0200517 532.790560
18320 18329 18330 1 119.8800511 375.723200
18327 18329 18330 1 119.8800511 375.723200
18322 18331 18332 1 115.00000 209.200000
18333 18334 18335 1 119.8800511 375.723200
18333 18334 18343 1 119.8800511 375.723200
18335 18334 18343 1 120.0200517 532.790560
18334 18335 18336 1 121.3800518 83.010560
18334 18335 18337 1 120.0200517 532.790560
18336 18335 18337 1 121.3800518 83.010560
3537 18336 9859 1 109.50000 418.400000
3537 18336 18335 1 103.70004 836.800000
3537 18336 18345 1 109.50000 418.400000
9859 18336 18335 1 103.70004 836.800000
9859 18336 18345 1 109.50000 418.400000
18335 18336 18345 1 103.70004 1034.033760
18335 18337 18338 1 119.8800511 375.723200
18335 18337 18339 1 120.0200517 532.790560
18338 18337 18339 1 119.8800511 375.723200
18337 18339 18340 1 119.8800511 375.723200
18337 18339 18341 1 120.0200517 532.790560
18340 18339 18341 1 119.8800511 375.723200
18339 18341 18342 1 119.8800511 375.723200
18339 18341 18343 1 120.0200517 532.790560
18342 18341 18343 1 119.8800511 375.723200
18334 18343 18341 1 120.0200517 532.790560
18334 18343 18344 1 119.8800511 375.723200
18341 18343 18344 1 119.8800511 375.723200
18336 18345 18346 1 115.00000 209.200000
18347 18348 18349 1 119.8800511 375.723200
18347 18348 18357 1 119.8800511 375.723200
18349 18348 18357 1 120.0200517 532.790560
18348 18349 18350 1 121.3800518 83.010560
18348 18349 18351 1 120.0200517 532.790560
18350 18349 18351 1 121.3800518 83.010560
2026 18350 5542 1 109.50000 418.400000
2026 18350 18349 1 103.70004 836.800000
2026 18350 18359 1 109.50000 418.400000
5542 18350 18349 1 103.70004 836.800000
5542 18350 18359 1 109.50000 418.400000
18349 18350 18359 1 103.70004 1034.033760
18349 18351 18352 1 119.8800511 375.723200
18349 18351 18353 1 120.0200517 532.790560
18352 18351 18353 1 119.8800511 375.723200
18351 18353 18354 1 119.8800511 375.723200
18351 18353 18355 1 120.0200517 532.790560
18354 18353 18355 1 119.8800511 375.723200
18353 18355 18356 1 119.8800511 375.723200
18353 18355 18357 1 120.0200517 532.790560
18356 18355 18357 1 119.8800511 375.723200
18348 18357 18355 1 120.0200517 532.790560
18348 18357 18358 1 119.8800511 375.723200
18355 18357 18358 1 119.8800511 375.723200
18350 18359 18360 1 115.00000 209.200000
18361 18362 18363 1 119.8800511 375.723200
18361 18362 18371 1 119.8800511 375.723200
18363 18362 18371 1 120.0200517 532.790560
18362 18363 18364 1 121.3800518 83.010560
18362 18363 18365 1 120.0200517 532.790560
18364 18363 18365 1 121.3800518 83.010560
3207 18364 9561 1 109.50000 418.400000
3207 18364 18363 1 103.70004 836.800000
3207 18364 18373 1 109.50000 418.400000
9561 18364 18363 1 103.70004 836.800000
9561 18364 18373 1 109.50000 418.400000
18363 18364 18373 1 103.70004 1034.033760
18363 18365 18366 1 119.8800511 375.723200
18363 18365 18367 1 120.0200517 532.790560
18366 18365 18367 1 119.8800511 375.723200
18365 18367 18368 1 119.8800511 375.723200
18365 18367 18369 1 120.0200517 532.790560
18368 18367 18369 1 119.8800511 375.723200
18367 18369 18370 1 119.8800511 375.723200
18367 18369 18371 1 120.0200517 532.790560
18370 18369 18371 1 119.8800511 375.723200
18362 18371 18369 1 120.0200517 532.790560
18362 18371 18372 1 119.8800511 375.723200
18369 18371 18372 1 119.8800511 375.723200
18364 18373 18374 1 115.00000 209.200000
18375 18376 18377 1 119.8800511 375.723200
18375 18376 18385 1 119.8800511 375.723200
18377 18376 18385 1 120.0200517 532.790560
18376 18377 18378 1 121.3800518 83.010560
18376 18377 18379 1 120.0200517 532.790560
18378 18377 18379 1 121.3800518 83.010560
9583 18378 10463 1 109.50000 418.400000
9583 18378 18377 1 103.70004 836.800000
9583 18378 18387 1 109.50000 418.400000
10463 18378 18377 1 103.70004 836.800000
10463 18378 18387 1 109.50000 418.400000
18377 18378 18387 1 103.70004 1034.033760
18377 18379 18380 1 119.8800511 375.723200
18377 18379 18381 1 120.0200517 532.790560
18380 18379 18381 1 119.8800511 375.723200
18379 18381 18382 1 119.8800511 375.723200
18379 18381 18383 1 120.0200517 532.790560
18382 18381 18383 1 119.8800511 375.723200
18381 18383 18384 1 119.8800511 375.723200
18381 18383 18385 1 120.0200517 532.790560
18384 18383 18385 1 119.8800511 375.723200
18376 18385 18383 1 120.0200517 532.790560
18376 18385 18386 1 119.8800511 375.723200
18383 18385 18386 1 119.8800511 375.723200
18378 18387 18388 1 115.00000 209.200000
18389 18390 18391 1 119.8800511 375.723200
18389 18390 18399 1 119.8800511 375.723200
18391 18390 18399 1 120.0200517 532.790560
18390 18391 18392 1 121.3800518 83.010560
18390 18391 18393 1 120.0200517 532.790560
18392 18391 18393 1 121.3800518 83.010560
4087 18392 10165 1 109.50000 418.400000
4087 18392 18391 1 103.70004 836.800000
4087 18392 18401 1 109.50000 418.400000
10165 18392 18391 1 103.70004 836.800000
10165 18392 18401 1 109.50000 418.400000
18391 18392 18401 1 103.70004 1034.033760
18391 18393 18394 1 119.8800511 375.723200
18391 18393 18395 1 120.0200517 532.790560
18394 18393 18395 1 119.8800511 375.723200
18393 18395 18396 1 119.8800511 375.723200
18393 18395 18397 1 120.0200517 532.790560
18396 18395 18397 1 119.8800511 375.723200
18395 18397 18398 1 119.8800511 375.723200
18395 18397 18399 1 120.0200517 532.790560
18398 18397 18399 1 119.8800511 375.723200
18390 18399 18397 1 120.0200517 532.790560
18390 18399 18400 1 119.8800511 375.723200
18397 18399 18400 1 119.8800511 375.723200
18392 18401 18402 1 115.00000 209.200000
18403 18404 18405 1 119.8800511 375.723200
18403 18404 18413 1 119.8800511 375.723200
18405 18404 18413 1 120.0200517 532.790560
18404 18405 18406 1 121.3800518 83.010560
18404 18405 18407 1 120.0200517 532.790560
18406 18405 18407 1 121.3800518 83.010560
6251 18406 10923 1 109.50000 418.400000
6251 18406 18405 1 103.70004 836.800000
6251 18406 18415 1 109.50000 418.400000
10923 18406 18405 1 103.70004 836.800000
10923 18406 18415 1 109.50000 418.400000
18405 18406 18415 1 103.70004 1034.033760
18405 18407 18408 1 119.8800511 375.723200
18405 18407 18409 1 120.0200517 532.790560
18408 18407 18409 1 119.8800511 375.723200
18407 18409 18410 1 119.8800511 375.723200
18407 18409 18411 1 120.0200517 532.790560
18410 18409 18411 1 119.8800511 375.723200
18409 18411 18412 1 119.8800511 375.723200
18409 18411 18413 1 120.0200517 532.790560
18412 18411 18413 1 119.8800511 375.723200
18404 18413 18411 1 120.0200517 532.790560
18404 18413 18414 1 119.8800511 375.723200
18411 18413 18414 1 119.8800511 375.723200
18406 18415 18416 1 115.00000 209.200000
18417 18418 18419 1 119.8800511 375.723200
18417 18418 18427 1 119.8800511 375.723200
18419 18418 18427 1 120.0200517 532.790560
18418 18419 18420 1 121.3800518 83.010560
18418 18419 18421 1 120.0200517 532.790560
18420 18419 18421 1 121.3800518 83.010560
652 18420 3221 1 109.50000 418.400000
652 18420 18419 1 103.70004 836.800000
652 18420 18429 1 109.50000 418.400000
3221 18420 18419 1 103.70004 836.800000
3221 18420 18429 1 109.50000 418.400000
18419 18420 18429 1 103.70004 1034.033760
18419 18421 18422 1 119.8800511 375.723200
18419 18421 18423 1 120.0200517 532.790560
18422 18421 18423 1 119.8800511 375.723200
18421 18423 18424 1 119.8800511 375.723200
18421 18423 18425 1 120.0200517 532.790560
18424 18423 18425 1 119.8800511 375.723200
18423 18425 18426 1 119.8800511 375.723200
18423 18425 18427 1 120.0200517 532.790560
18426 18425 18427 1 119.8800511 375.723200
18418 18427 18425 1 120.0200517 532.790560
18418 18427 18428 1 119.8800511 375.723200
18425 18427 18428 1 119.8800511 375.723200
18420 18429 18430 1 115.00000 209.200000
18431 18432 18433 1 119.8800511 375.723200
18431 18432 18441 1 119.8800511 375.723200
18433 18432 18441 1 120.0200517 532.790560
18432 18433 18434 1 121.3800518 83.010560
18432 18433 18435 1 120.0200517 532.790560
18434 18433 18435 1 121.3800518 83.010560
2893 18434 11044 1 109.50000 418.400000
2893 18434 18433 1 103.70004 836.800000
2893 18434 18443 1 109.50000 418.400000
11044 18434 18433 1 103.70004 836.800000
11044 18434 18443 1 109.50000 418.400000
18433 18434 18443 1 103.70004 1034.033760
18433 18435 18436 1 119.8800511 375.723200
18433 18435 18437 1 120.0200517 532.790560
18436 18435 18437 1 119.8800511 375.723200
18435 18437 18438 1 119.8800511 375.723200
18435 18437 18439 1 120.0200517 532.790560
18438 18437 18439 1 119.8800511 375.723200
18437 18439 18440 1 119.8800511 375.723200
18437 18439 18441 1 120.0200517 532.790560
18440 18439 18441 1 119.8800511 375.723200
18432 18441 18439 1 120.0200517 532.790560
18432 18441 18442 1 119.8800511 375.723200
18439 18441 18442 1 119.8800511 375.723200
18434 18443 18444 1 115.00000 209.200000
18445 18446 18447 1 119.8800511 375.723200
18445 18446 18455 1 119.8800511 375.723200
18447 18446 18455 1 120.0200517 532.790560
18446 18447 18448 1 121.3800518 83.010560
18446 18447 18449 1 120.0200517 532.790560
18448 18447 18449 1 121.3800518 83.010560
7311 18448 8290 1 109.50000 418.400000
7311 18448 18447 1 103.70004 836.800000
7311 18448 18457 1 109.50000 418.400000
8290 18448 18447 1 103.70004 836.800000
8290 18448 18457 1 109.50000 418.400000
18447 18448 18457 1 103.70004 1034.033760
18447 18449 18450 1 119.8800511 375.723200
18447 18449 18451 1 120.0200517 532.790560
18450 18449 18451 1 119.8800511 375.723200
18449 18451 18452 1 119.8800511 375.723200
18449 18451 18453 1 120.0200517 532.790560
18452 18451 18453 1 119.8800511 375.723200
18451 18453 18454 1 119.8800511 375.723200
18451 18453 18455 1 120.0200517 532.790560
18454 18453 18455 1 119.8800511 375.723200
18446 18455 18453 1 120.0200517 532.790560
18446 18455 18456 1 119.8800511 375.723200
18453 18455 18456 1 119.8800511 375.723200
18448 18457 18458 1 115.00000 209.200000
18459 18460 18461 1 119.8800511 375.723200
18459 18460 18469 1 119.8800511 375.723200
18461 18460 18469 1 120.0200517 532.790560
18460 18461 18462 1 121.3800518 83.010560
18460 18461 18463 1 120.0200517 532.790560
18462 18461 18463 1 121.3800518 83.010560
178 18462 179 1 109.50000 418.400000
178 18462 11140 1 109.50000 418.400000
178 18462 18461 1 103.70004 836.800000
179 18462 11140 1 109.50000 418.400000
179 18462 18461 1 103.70004 836.800000
11140 18462 18461 1 103.70004 836.800000
18461 18463 18464 1 119.8800511 375.723200
18461 18463 18465 1 120.0200517 532.790560
18464 18463 18465 1 119.8800511 375.723200
18463 18465 18466 1 119.8800511 375.723200
18463 18465 18467 1 120.0200517 532.790560
18466 18465 18467 1 119.8800511 375.723200
18465 18467 18468 1 119.8800511 375.723200
18465 18467 18469 1 120.0200517 532.790560
18468 18467 18469 1 119.8800511 375.723200
18460 18469 18467 1 120.0200517 532.790560
18460 18469 18470 1 119.8800511 375.723200
18467 18469 18470 1 119.8800511 375.723200
18471 18472 18473 1 119.8800511 375.723200
18471 18472 18481 1 119.8800511 375.723200
18473 18472 18481 1 120.0200517 532.790560
18472 18473 18474 1 121.3800518 83.010560
18472 18473 18475 1 120.0200517 532.790560
18474 18473 18475 1 121.3800518 83.010560
137 18474 578 1 109.50000 418.400000
137 18474 579 1 109.50000 418.400000
137 18474 18473 1 103.70004 836.800000
578 18474 579 1 109.50000 418.400000
578 18474 18473 1 103.70004 836.800000
579 18474 18473 1 103.70004 836.800000
18473 18475 18476 1 119.8800511 375.723200
18473 18475 18477 1 120.0200517 532.790560
18476 18475 18477 1 119.8800511 375.723200
18475 18477 18478 1 119.8800511 375.723200
18475 18477 18479 1 120.0200517 532.790560
18478 18477 18479 1 119.8800511 375.723200
18477 18479 18480 1 119.8800511 375.723200
18477 18479 18481 1 120.0200517 532.790560
18480 18479 18481 1 119.8800511 375.723200
18472 18481 18479 1 120.0200517 532.790560
18472 18481 18482 1 119.8800511 375.723200
18479 18481 18482 1 119.8800511 375.723200
18483 18484 18485 1 119.8800511 375.723200
18483 18484 18493 1 119.8800511 375.723200
18485 18484 18493 1 120.0200517 532.790560
18484 18485 18486 1 121.3800518 83.010560
18484 18485 18487 1 120.0200517 532.790560
18486 18485 18487 1 121.3800518 83.010560
675 18486 676 1 109.50000 418.400000
675 18486 677 1 109.50000 418.400000
675 18486 18485 1 103.70004 836.800000
676 18486 677 1 109.50000 418.400000
676 18486 18485 1 103.70004 836.800000
677 18486 18485 1 103.70004 836.800000
18485 18487 18488 1 119.8800511 375.723200
18485 18487 18489 1 120.0200517 532.790560
18488 18487 18489 1 119.8800511 375.723200
18487 18489 18490 1 119.8800511 375.723200
18487 18489 18491 1 120.0200517 532.790560
18490 18489 18491 1 119.8800511 375.723200
18489 18491 18492 1 119.8800511 375.723200
18489 18491 18493 1 120.0200517 532.790560
18492 18491 18493 1 119.8800511 375.723200
18484 18493 18491 1 120.0200517 532.790560
18484 18493 18494 1 119.8800511 375.723200
18491 18493 18494 1 119.8800511 375.723200
18495 18496 18497 1 119.8800511 375.723200
18495 18496 18505 1 119.8800511 375.723200
18497 18496 18505 1 120.0200517 532.790560
18496 18497 18498 1 121.3800518 83.010560
18496 18497 18499 1 120.0200517 532.790560
18498 18497 18499 1 121.3800518 83.010560
964 18498 965 1 109.50000 418.400000
964 18498 11153 1 109.50000 418.400000
964 18498 18497 1 103.70004 836.800000
965 18498 11153 1 109.50000 418.400000
965 18498 18497 1 103.70004 836.800000
11153 18498 18497 1 103.70004 836.800000
18497 18499 18500 1 119.8800511 375.723200
18497 18499 18501 1 120.0200517 532.790560
18500 18499 18501 1 119.8800511 375.723200
18499 18501 18502 1 119.8800511 375.723200
18499 18501 18503 1 120.0200517 532.790560
18502 18501 18503 1 119.8800511 375.723200
18501 18503 18504 1 119.8800511 375.723200
18501 18503 18505 1 120.0200517 532.790560
18504 18503 18505 1 119.8800511 375.723200
18496 18505 18503 1 120.0200517 532.790560
18496 18505 18506 1 119.8800511 375.723200
18503 18505 18506 1 119.8800511 375.723200
18507 18508 18509 1 119.8800511 375.723200
18507 18508 18517 1 119.8800511 375.723200
18509 18508 18517 1 120.0200517 532.790560
18508 18509 18510 1 121.3800518 83.010560
18508 18509 18511 1 120.0200517 532.790560
18510 18509 18511 1 121.3800518 83.010560
1623 18510 1624 1 109.50000 418.400000
1623 18510 1625 1 109.50000 418.400000
1623 18510 18509 1 103.70004 836.800000
1624 18510 1625 1 109.50000 418.400000
1624 18510 18509 1 103.70004 836.800000
1625 18510 18509 1 103.70004 836.800000
18509 18511 18512 1 119.8800511 375.723200
18509 18511 18513 1 120.0200517 532.790560
18512 18511 18513 1 119.8800511 375.723200
18511 18513 18514 1 119.8800511 375.723200
18511 18513 18515 1 120.0200517 532.790560
18514 18513 18515 1 119.8800511 375.723200
18513 18515 18516 1 119.8800511 375.723200
18513 18515 18517 1 120.0200517 532.790560
18516 18515 18517 1 119.8800511 375.723200
18508 18517 18515 1 120.0200517 532.790560
18508 18517 18518 1 119.8800511 375.723200
18515 18517 18518 1 119.8800511 375.723200
18519 18520 18521 1 119.8800511 375.723200
18519 18520 18529 1 119.8800511 375.723200
18521 18520 18529 1 120.0200517 532.790560
18520 18521 18522 1 121.3800518 83.010560
18520 18521 18523 1 120.0200517 532.790560
18522 18521 18523 1 121.3800518 83.010560
1644 18522 1645 1 109.50000 418.400000
1644 18522 1646 1 109.50000 418.400000
1644 18522 18521 1 103.70004 836.800000
1645 18522 1646 1 109.50000 418.400000
1645 18522 18521 1 103.70004 836.800000
1646 18522 18521 1 103.70004 836.800000
18521 18523 18524 1 119.8800511 375.723200
18521 18523 18525 1 120.0200517 532.790560
18524 18523 18525 1 119.8800511 375.723200
18523 18525 18526 1 119.8800511 375.723200
18523 18525 18527 1 120.0200517 532.790560
18526 18525 18527 1 119.8800511 375.723200
18525 18527 18528 1 119.8800511 375.723200
18525 18527 18529 1 120.0200517 532.790560
18528 18527 18529 1 119.8800511 375.723200
18520 18529 18527 1 120.0200517 532.790560
18520 18529 18530 1 119.8800511 375.723200
18527 18529 18530 1 119.8800511 375.723200
18531 18532 18533 1 119.8800511 375.723200
18531 18532 18541 1 119.8800511 375.723200
18533 18532 18541 1 120.0200517 532.790560
18532 18533 18534 1 121.3800518 83.010560
18532 18533 18535 1 120.0200517 532.790560
18534 18533 18535 1 121.3800518 83.010560
1652 18534 1655 1 109.50000 418.400000
1652 18534 11164 1 109.50000 418.400000
1652 18534 18533 1 103.70004 836.800000
1655 18534 11164 1 109.50000 418.400000
1655 18534 18533 1 103.70004 836.800000
11164 18534 18533 1 103.70004 836.800000
18533 18535 18536 1 119.8800511 375.723200
18533 18535 18537 1 120.0200517 532.790560
18536 18535 18537 1 119.8800511 375.723200
18535 18537 18538 1 119.8800511 375.723200
18535 18537 18539 1 120.0200517 532.790560
18538 18537 18539 1 119.8800511 375.723200
18537 18539 18540 1 119.8800511 375.723200
18537 18539 18541 1 120.0200517 532.790560
18540 18539 18541 1 119.8800511 375.723200
18532 18541 18539 1 120.0200517 532.790560
18532 18541 18542 1 119.8800511 375.723200
18539 18541 18542 1 119.8800511 375.723200
18543 18544 18545 1 119.8800511 375.723200
18543 18544 18553 1 119.8800511 375.723200
18545 18544 18553 1 120.0200517 532.790560
18544 18545 18546 1 121.3800518 83.010560
18544 18545 18547 1 120.0200517 532.790560
18546 18545 18547 1 121.3800518 83.010560
1685 18546 7198 1 109.50000 418.400000
1685 18546 10902 1 109.50000 418.400000
1685 18546 18545 1 103.70004 836.800000
7198 18546 10902 1 109.50000 418.400000
7198 18546 18545 1 103.70004 836.800000
10902 18546 18545 1 103.70004 836.800000
18545 18547 18548 1 119.8800511 375.723200
18545 18547 18549 1 120.0200517 532.790560
18548 18547 18549 1 119.8800511 375.723200
18547 18549 18550 1 119.8800511 375.723200
18547 18549 18551 1 120.0200517 532.790560
18550 18549 18551 1 119.8800511 375.723200
18549 18551 18552 1 119.8800511 375.723200
18549 18551 18553 1 120.0200517 532.790560
18552 18551 18553 1 119.8800511 375.723200
18544 18553 18551 1 120.0200517 532.790560
18544 18553 18554 1 119.8800511 375.723200
18551 18553 18554 1 119.8800511 375.723200
18555 18556 18557 1 119.8800511 375.723200
18555 18556 18565 1 119.8800511 375.723200
18557 18556 18565 1 120.0200517 532.790560
18556 18557 18558 1 121.3800518 83.010560
18556 18557 18559 1 120.0200517 532.790560
18558 18557 18559 1 121.3800518 83.010560
1687 18558 1688 1 109.50000 418.400000
1687 18558 8376 1 109.50000 418.400000
1687 18558 18557 1 103.70004 836.800000
1688 18558 8376 1 109.50000 418.400000
1688 18558 18557 1 103.70004 836.800000
8376 18558 18557 1 103.70004 836.800000
18557 18559 18560 1 119.8800511 375.723200
18557 18559 18561 1 120.0200517 532.790560
18560 18559 18561 1 119.8800511 375.723200
18559 18561 18562 1 119.8800511 375.723200
18559 18561 18563 1 120.0200517 532.790560
18562 18561 18563 1 119.8800511 375.723200
18561 18563 18564 1 119.8800511 375.723200
18561 18563 18565 1 120.0200517 532.790560
18564 18563 18565 1 119.8800511 375.723200
18556 18565 18563 1 120.0200517 532.790560
18556 18565 18566 1 119.8800511 375.723200
18563 18565 18566 1 119.8800511 375.723200
18567 18568 18569 1 119.8800511 375.723200
18567 18568 18577 1 119.8800511 375.723200
18569 18568 18577 1 120.0200517 532.790560
18568 18569 18570 1 121.3800518 83.010560
18568 18569 18571 1 120.0200517 532.790560
18570 18569 18571 1 121.3800518 83.010560
1758 18570 1759 1 109.50000 418.400000
1758 18570 1760 1 109.50000 418.400000
1758 18570 18569 1 103.70004 836.800000
1759 18570 1760 1 109.50000 418.400000
1759 18570 18569 1 103.70004 836.800000
1760 18570 18569 1 103.70004 836.800000
18569 18571 18572 1 119.8800511 375.723200
18569 18571 18573 1 120.0200517 532.790560
18572 18571 18573 1 119.8800511 375.723200
18571 18573 18574 1 119.8800511 375.723200
18571 18573 18575 1 120.0200517 532.790560
18574 18573 18575 1 119.8800511 375.723200
18573 18575 18576 1 119.8800511 375.723200
18573 18575 18577 1 120.0200517 532.790560
18576 18575 18577 1 119.8800511 375.723200
18568 18577 18575 1 120.0200517 532.790560
18568 18577 18578 1 119.8800511 375.723200
18575 18577 18578 1 119.8800511 375.723200
18579 18580 18581 1 119.8800511 375.723200
18579 18580 18589 1 119.8800511 375.723200
18581 18580 18589 1 120.0200517 532.790560
18580 18581 18582 1 121.3800518 83.010560
18580 18581 18583 1 120.0200517 532.790560
18582 18581 18583 1 121.3800518 83.010560
1258 18582 1776 1 109.50000 418.400000
1258 18582 1777 1 109.50000 418.400000
1258 18582 18581 1 103.70004 836.800000
1776 18582 1777 1 109.50000 418.400000
1776 18582 18581 1 103.70004 836.800000
1777 18582 18581 1 103.70004 836.800000
18581 18583 18584 1 119.8800511 375.723200
18581 18583 18585 1 120.0200517 532.790560
18584 18583 18585 1 119.8800511 375.723200
18583 18585 18586 1 119.8800511 375.723200
18583 18585 18587 1 120.0200517 532.790560
18586 18585 18587 1 119.8800511 375.723200
18585 18587 18588 1 119.8800511 375.723200
18585 18587 18589 1 120.0200517 532.790560
18588 18587 18589 1 119.8800511 375.723200
18580 18589 18587 1 120.0200517 532.790560
18580 18589 18590 1 119.8800511 375.723200
18587 18589 18590 1 119.8800511 375.723200
18591 18592 18593 1 119.8800511 375.723200
18591 18592 18601 1 119.8800511 375.723200
18593 18592 18601 1 120.0200517 532.790560
18592 18593 18594 1 121.3800518 83.010560
18592 18593 18595 1 120.0200517 532.790560
18594 18593 18595 1 121.3800518 83.010560
1807 18594 1808 1 109.50000 418.400000
1807 18594 11167 1 109.50000 418.400000
1807 18594 18593 1 103.70004 836.800000
1808 18594 11167 1 109.50000 418.400000
1808 18594 18593 1 103.70004 836.800000
11167 18594 18593 1 103.70004 836.800000
18593 18595 18596 1 119.8800511 375.723200
18593 18595 18597 1 120.0200517 532.790560
18596 18595 18597 1 119.8800511 375.723200
18595 18597 18598 1 119.8800511 375.723200
18595 18597 18599 1 120.0200517 532.790560
18598 18597 18599 1 119.8800511 375.723200
18597 18599 18600 1 119.8800511 375.723200
18597 18599 18601 1 120.0200517 532.790560
18600 18599 18601 1 119.8800511 375.723200
18592 18601 18599 1 120.0200517 532.790560
18592 18601 18602 1 119.8800511 375.723200
18599 18601 18602 1 119.8800511 375.723200
18603 18604 18605 1 119.8800511 375.723200
18603 18604 18613 1 119.8800511 375.723200
18605 18604 18613 1 120.0200517 532.790560
18604 18605 18606 1 121.3800518 83.010560
18604 18605 18607 1 120.0200517 532.790560
18606 18605 18607 1 121.3800518 83.010560
1829 18606 1830 1 109.50000 418.400000
1829 18606 1831 1 109.50000 418.400000
1829 18606 18605 1 103.70004 836.800000
1830 18606 1831 1 109.50000 418.400000
1830 18606 18605 1 103.70004 836.800000
1831 18606 18605 1 103.70004 836.800000
18605 18607 18608 1 119.8800511 375.723200
18605 18607 18609 1 120.0200517 532.790560
18608 18607 18609 1 119.8800511 375.723200
18607 18609 18610 1 119.8800511 375.723200
18607 18609 18611 1 120.0200517 532.790560
18610 18609 18611 1 119.8800511 375.723200
18609 18611 18612 1 119.8800511 375.723200
18609 18611 18613 1 120.0200517 532.790560
18612 18611 18613 1 119.8800511 375.723200
18604 18613 18611 1 120.0200517 532.790560
18604 18613 18614 1 119.8800511 375.723200
18611 18613 18614 1 119.8800511 375.723200
18615 18616 18617 1 119.8800511 375.723200
18615 18616 18625 1 119.8800511 375.723200
18617 18616 18625 1 120.0200517 532.790560
18616 18617 18618 1 121.3800518 83.010560
18616 18617 18619 1 120.0200517 532.790560
18618 18617 18619 1 121.3800518 83.010560
1863 18618 1864 1 109.50000 418.400000
1863 18618 1865 1 109.50000 418.400000
1863 18618 18617 1 103.70004 836.800000
1864 18618 1865 1 109.50000 418.400000
1864 18618 18617 1 103.70004 836.800000
1865 18618 18617 1 103.70004 836.800000
18617 18619 18620 1 119.8800511 375.723200
18617 18619 18621 1 120.0200517 532.790560
18620 18619 18621 1 119.8800511 375.723200
18619 18621 18622 1 119.8800511 375.723200
18619 18621 18623 1 120.0200517 532.790560
18622 18621 18623 1 119.8800511 375.723200
18621 18623 18624 1 119.8800511 375.723200
18621 18623 18625 1 120.0200517 532.790560
18624 18623 18625 1 119.8800511 375.723200
18616 18625 18623 1 120.0200517 532.790560
18616 18625 18626 1 119.8800511 375.723200
18623 18625 18626 1 119.8800511 375.723200
18627 18628 18629 1 119.8800511 375.723200
18627 18628 18637 1 119.8800511 375.723200
18629 18628 18637 1 120.0200517 532.790560
18628 18629 18630 1 121.3800518 83.010560
18628 18629 18631 1 120.0200517 532.790560
18630 18629 18631 1 121.3800518 83.010560
1866 18630 1867 1 109.50000 418.400000
1866 18630 11168 1 109.50000 418.400000
1866 18630 18629 1 103.70004 836.800000
1867 18630 11168 1 109.50000 418.400000
1867 18630 18629 1 103.70004 836.800000
11168 18630 18629 1 103.70004 836.800000
18629 18631 18632 1 119.8800511 375.723200
18629 18631 18633 1 120.0200517 532.790560
18632 18631 18633 1 119.8800511 375.723200
18631 18633 18634 1 119.8800511 375.723200
18631 18633 18635 1 120.0200517 532.790560
18634 18633 18635 1 119.8800511 375.723200
18633 18635 18636 1 119.8800511 375.723200
18633 18635 18637 1 120.0200517 532.790560
18636 18635 18637 1 119.8800511 375.723200
18628 18637 18635 1 120.0200517 532.790560
18628 18637 18638 1 119.8800511 375.723200
18635 18637 18638 1 119.8800511 375.723200
18639 18640 18641 1 119.8800511 375.723200
18639 18640 18649 1 119.8800511 375.723200
18641 18640 18649 1 120.0200517 532.790560
18640 18641 18642 1 121.3800518 83.010560
18640 18641 18643 1 120.0200517 532.790560
18642 18641 18643 1 121.3800518 83.010560
1889 18642 1890 1 109.50000 418.400000
1889 18642 1891 1 109.50000 418.400000
1889 18642 18641 1 103.70004 836.800000
1890 18642 1891 1 109.50000 418.400000
1890 18642 18641 1 103.70004 836.800000
1891 18642 18641 1 103.70004 836.800000
18641 18643 18644 1 119.8800511 375.723200
18641 18643 18645 1 120.0200517 532.790560
18644 18643 18645 1 119.8800511 375.723200
18643 18645 18646 1 119.8800511 375.723200
18643 18645 18647 1 120.0200517 532.790560
18646 18645 18647 1 119.8800511 375.723200
18645 18647 18648 1 119.8800511 375.723200
18645 18647 18649 1 120.0200517 532.790560
18648 18647 18649 1 119.8800511 375.723200
18640 18649 18647 1 120.0200517 532.790560
18640 18649 18650 1 119.8800511 375.723200
18647 18649 18650 1 119.8800511 375.723200
18651 18652 18653 1 119.8800511 375.723200
18651 18652 18661 1 119.8800511 375.723200
18653 18652 18661 1 120.0200517 532.790560
18652 18653 18654 1 121.3800518 83.010560
18652 18653 18655 1 120.0200517 532.790560
18654 18653 18655 1 121.3800518 83.010560
1896 18654 1897 1 109.50000 418.400000
1896 18654 3832 1 109.50000 418.400000
1896 18654 18653 1 103.70004 836.800000
1897 18654 3832 1 109.50000 418.400000
1897 18654 18653 1 103.70004 836.800000
3832 18654 18653 1 103.70004 836.800000
18653 18655 18656 1 119.8800511 375.723200
18653 18655 18657 1 120.0200517 532.790560
18656 18655 18657 1 119.8800511 375.723200
18655 18657 18658 1 119.8800511 375.723200
18655 18657 18659 1 120.0200517 532.790560
18658 18657 18659 1 119.8800511 375.723200
18657 18659 18660 1 119.8800511 375.723200
18657 18659 18661 1 120.0200517 532.790560
18660 18659 18661 1 119.8800511 375.723200
18652 18661 18659 1 120.0200517 532.790560
18652 18661 18662 1 119.8800511 375.723200
18659 18661 18662 1 119.8800511 375.723200
18663 18664 18665 1 119.8800511 375.723200
18663 18664 18673 1 119.8800511 375.723200
18665 18664 18673 1 120.0200517 532.790560
18664 18665 18666 1 121.3800518 83.010560
18664 18665 18667 1 120.0200517 532.790560
18666 18665 18667 1 121.3800518 83.010560
2018 18666 2019 1 109.50000 418.400000
2018 18666 11169 1 109.50000 418.400000
2018 18666 18665 1 103.70004 836.800000
2019 18666 11169 1 109.50000 418.400000
2019 18666 18665 1 103.70004 836.800000
11169 18666 18665 1 103.70004 836.800000
18665 18667 18668 1 119.8800511 375.723200
18665 18667 18669 1 120.0200517 532.790560
18668 18667 18669 1 119.8800511 375.723200
18667 18669 18670 1 119.8800511 375.723200
18667 18669 18671 1 120.0200517 532.790560
18670 18669 18671 1 119.8800511 375.723200
18669 18671 18672 1 119.8800511 375.723200
18669 18671 18673 1 120.0200517 532.790560
18672 18671 18673 1 119.8800511 375.723200
18664 18673 18671 1 120.0200517 532.790560
18664 18673 18674 1 119.8800511 375.723200
18671 18673 18674 1 119.8800511 375.723200
18675 18676 18677 1 119.8800511 375.723200
18675 18676 18685 1 119.8800511 375.723200
18677 18676 18685 1 120.0200517 532.790560
18676 18677 18678 1 121.3800518 83.010560
18676 18677 18679 1 120.0200517 532.790560
18678 18677 18679 1 121.3800518 83.010560
1372 18678 2041 1 109.50000 418.400000
1372 18678 2042 1 109.50000 418.400000
1372 18678 18677 1 103.70004 836.800000
2041 18678 2042 1 109.50000 418.400000
2041 18678 18677 1 103.70004 836.800000
2042 18678 18677 1 103.70004 836.800000
18677 18679 18680 1 119.8800511 375.723200
18677 18679 18681 1 120.0200517 532.790560
18680 18679 18681 1 119.8800511 375.723200
18679 18681 18682 1 119.8800511 375.723200
18679 18681 18683 1 120.0200517 532.790560
18682 18681 18683 1 119.8800511 375.723200
18681 18683 18684 1 119.8800511 375.723200
18681 18683 18685 1 120.0200517 532.790560
18684 18683 18685 1 119.8800511 375.723200
18676 18685 18683 1 120.0200517 532.790560
18676 18685 18686 1 119.8800511 375.723200
18683 18685 18686 1 119.8800511 375.723200
18687 18688 18689 1 119.8800511 375.723200
18687 18688 18697 1 119.8800511 375.723200
18689 18688 18697 1 120.0200517 532.790560
18688 18689 18690 1 121.3800518 83.010560
18688 18689 18691 1 120.0200517 532.790560
18690 18689 18691 1 121.3800518 83.010560
2043 18690 2044 1 109.50000 418.400000
2043 18690 2045 1 109.50000 418.400000
2043 18690 18689 1 103.70004 836.800000
2044 18690 2045 1 109.50000 418.400000
2044 18690 18689 1 103.70004 836.800000
2045 18690 18689 1 103.70004 836.800000
18689 18691 18692 1 119.8800511 375.723200
18689 18691 18693 1 120.0200517 532.790560
18692 18691 18693 1 119.8800511 375.723200
18691 18693 18694 1 119.8800511 375.723200
18691 18693 18695 1 120.0200517 532.790560
18694 18693 18695 1 119.8800511 375.723200
18693 18695 18696 1 119.8800511 375.723200
18693 18695 18697 1 120.0200517 532.790560
18696 18695 18697 1 119.8800511 375.723200
18688 18697 18695 1 120.0200517 532.790560
18688 18697 18698 1 119.8800511 375.723200
18695 18697 18698 1 119.8800511 375.723200
18699 18700 18701 1 119.8800511 375.723200
18699 18700 18709 1 119.8800511 375.723200
18701 18700 18709 1 120.0200517 532.790560
18700 18701 18702 1 121.3800518 83.010560
18700 18701 18703 1 120.0200517 532.790560
18702 18701 18703 1 121.3800518 83.010560
2046 18702 2047 1 109.50000 418.400000
2046 18702 2048 1 109.50000 418.400000
2046 18702 18701 1 103.70004 836.800000
2047 18702 2048 1 109.50000 418.400000
2047 18702 18701 1 103.70004 836.800000
2048 18702 18701 1 103.70004 836.800000
18701 18703 18704 1 119.8800511 375.723200
18701 18703 18705 1 120.0200517 532.790560
18704 18703 18705 1 119.8800511 375.723200
18703 18705 18706 1 119.8800511 375.723200
18703 18705 18707 1 120.0200517 532.790560
18706 18705 18707 1 119.8800511 375.723200
18705 18707 18708 1 119.8800511 375.723200
18705 18707 18709 1 120.0200517 532.790560
18708 18707 18709 1 119.8800511 375.723200
18700 18709 18707 1 120.0200517 532.790560
18700 18709 18710 1 119.8800511 375.723200
18707 18709 18710 1 119.8800511 375.723200
18711 18712 18713 1 119.8800511 375.723200
18711 18712 18721 1 119.8800511 375.723200
18713 18712 18721 1 120.0200517 532.790560
18712 18713 18714 1 121.3800518 83.010560
18712 18713 18715 1 120.0200517 532.790560
18714 18713 18715 1 121.3800518 83.010560
1986 18714 2066 1 109.50000 418.400000
1986 18714 11170 1 109.50000 418.400000
1986 18714 18713 1 103.70004 836.800000
2066 18714 11170 1 109.50000 418.400000
2066 18714 18713 1 103.70004 836.800000
11170 18714 18713 1 103.70004 836.800000
18713 18715 18716 1 119.8800511 375.723200
18713 18715 18717 1 120.0200517 532.790560
18716 18715 18717 1 119.8800511 375.723200
18715 18717 18718 1 119.8800511 375.723200
18715 18717 18719 1 120.0200517 532.790560
18718 18717 18719 1 119.8800511 375.723200
18717 18719 18720 1 119.8800511 375.723200
18717 18719 18721 1 120.0200517 532.790560
18720 18719 18721 1 119.8800511 375.723200
18712 18721 18719 1 120.0200517 532.790560
18712 18721 18722 1 119.8800511 375.723200
18719 18721 18722 1 119.8800511 375.723200
18723 18724 18725 1 119.8800511 375.723200
18723 18724 18733 1 119.8800511 375.723200
18725 18724 18733 1 120.0200517 532.790560
18724 18725 18726 1 121.3800518 83.010560
18724 18725 18727 1 120.0200517 532.790560
18726 18725 18727 1 121.3800518 83.010560
741 18726 2096 1 109.50000 418.400000
741 18726 2097 1 109.50000 418.400000
741 18726 18725 1 103.70004 836.800000
2096 18726 2097 1 109.50000 418.400000
2096 18726 18725 1 103.70004 836.800000
2097 18726 18725 1 103.70004 836.800000
18725 18727 18728 1 119.8800511 375.723200
18725 18727 18729 1 120.0200517 532.790560
18728 18727 18729 1 119.8800511 375.723200
18727 18729 18730 1 119.8800511 375.723200
18727 18729 18731 1 120.0200517 532.790560
18730 18729 18731 1 119.8800511 375.723200
18729 18731 18732 1 119.8800511 375.723200
18729 18731 18733 1 120.0200517 532.790560
18732 18731 18733 1 119.8800511 375.723200
18724 18733 18731 1 120.0200517 532.790560
18724 18733 18734 1 119.8800511 375.723200
18731 18733 18734 1 119.8800511 375.723200
18735 18736 18737 1 119.8800511 375.723200
18735 18736 18745 1 119.8800511 375.723200
18737 18736 18745 1 120.0200517 532.790560
18736 18737 18738 1 121.3800518 83.010560
18736 18737 18739 1 120.0200517 532.790560
18738 18737 18739 1 121.3800518 83.010560
2148 18738 7897 1 109.50000 418.400000
2148 18738 11172 1 109.50000 418.400000
2148 18738 18737 1 103.70004 836.800000
7897 18738 11172 1 109.50000 418.400000
7897 18738 18737 1 103.70004 836.800000
11172 18738 18737 1 103.70004 836.800000
18737 18739 18740 1 119.8800511 375.723200
18737 18739 18741 1 120.0200517 532.790560
18740 18739 18741 1 119.8800511 375.723200
18739 18741 18742 1 119.8800511 375.723200
18739 18741 18743 1 120.0200517 532.790560
18742 18741 18743 1 119.8800511 375.723200
18741 18743 18744 1 119.8800511 375.723200
18741 18743 18745 1 120.0200517 532.790560
18744 18743 18745 1 119.8800511 375.723200
18736 18745 18743 1 120.0200517 532.790560
18736 18745 18746 1 119.8800511 375.723200
18743 18745 18746 1 119.8800511 375.723200
18747 18748 18749 1 119.8800511 375.723200
18747 18748 18757 1 119.8800511 375.723200
18749 18748 18757 1 120.0200517 532.790560
18748 18749 18750 1 121.3800518 83.010560
18748 18749 18751 1 120.0200517 532.790560
18750 18749 18751 1 121.3800518 83.010560
1566 18750 2159 1 109.50000 418.400000
1566 18750 2160 1 109.50000 418.400000
1566 18750 18749 1 103.70004 836.800000
2159 18750 2160 1 109.50000 418.400000
2159 18750 18749 1 103.70004 836.800000
2160 18750 18749 1 103.70004 836.800000
18749 18751 18752 1 119.8800511 375.723200
18749 18751 18753 1 120.0200517 532.790560
18752 18751 18753 1 119.8800511 375.723200
18751 18753 18754 1 119.8800511 375.723200
18751 18753 18755 1 120.0200517 532.790560
18754 18753 18755 1 119.8800511 375.723200
18753 18755 18756 1 119.8800511 375.723200
18753 18755 18757 1 120.0200517 532.790560
18756 18755 18757 1 119.8800511 375.723200
18748 18757 18755 1 120.0200517 532.790560
18748 18757 18758 1 119.8800511 375.723200
18755 18757 18758 1 119.8800511 375.723200
18759 18760 18761 1 119.8800511 375.723200
18759 18760 18769 1 119.8800511 375.723200
18761 18760 18769 1 120.0200517 532.790560
18760 18761 18762 1 121.3800518 83.010560
18760 18761 18763 1 120.0200517 532.790560
18762 18761 18763 1 121.3800518 83.010560
2161 18762 2162 1 109.50000 418.400000
2161 18762 2164 1 109.50000 418.400000
2161 18762 18761 1 103.70004 836.800000
2162 18762 2164 1 109.50000 418.400000
2162 18762 18761 1 103.70004 836.800000
2164 18762 18761 1 103.70004 836.800000
18761 18763 18764 1 119.8800511 375.723200
18761 18763 18765 1 120.0200517 532.790560
18764 18763 18765 1 119.8800511 375.723200
18763 18765 18766 1 119.8800511 375.723200
18763 18765 18767 1 120.0200517 532.790560
18766 18765 18767 1 119.8800511 375.723200
18765 18767 18768 1 119.8800511 375.723200
18765 18767 18769 1 120.0200517 532.790560
18768 18767 18769 1 119.8800511 375.723200
18760 18769 18767 1 120.0200517 532.790560
18760 18769 18770 1 119.8800511 375.723200
18767 18769 18770 1 119.8800511 375.723200
18771 18772 18773 1 119.8800511 375.723200
18771 18772 18781 1 119.8800511 375.723200
18773 18772 18781 1 120.0200517 532.790560
18772 18773 18774 1 121.3800518 83.010560
18772 18773 18775 1 120.0200517 532.790560
18774 18773 18775 1 121.3800518 83.010560
2165 18774 2166 1 109.50000 418.400000
2165 18774 9001 1 109.50000 418.400000
2165 18774 18773 1 103.70004 836.800000
2166 18774 9001 1 109.50000 418.400000
2166 18774 18773 1 103.70004 836.800000
9001 18774 18773 1 103.70004 836.800000
18773 18775 18776 1 119.8800511 375.723200
18773 18775 18777 1 120.0200517 532.790560
18776 18775 18777 1 119.8800511 375.723200
18775 18777 18778 1 119.8800511 375.723200
18775 18777 18779 1 120.0200517 532.790560
18778 18777 18779 1 119.8800511 375.723200
18777 18779 18780 1 119.8800511 375.723200
18777 18779 18781 1 120.0200517 532.790560
18780 18779 18781 1 119.8800511 375.723200
18772 18781 18779 1 120.0200517 532.790560
18772 18781 18782 1 119.8800511 375.723200
18779 18781 18782 1 119.8800511 375.723200
18783 18784 18785 1 119.8800511 375.723200
18783 18784 18793 1 119.8800511 375.723200
18785 18784 18793 1 120.0200517 532.790560
18784 18785 18786 1 121.3800518 83.010560
18784 18785 18787 1 120.0200517 532.790560
18786 18785 18787 1 121.3800518 83.010560
2200 18786 2201 1 109.50000 418.400000
2200 18786 11173 1 109.50000 418.400000
2200 18786 18785 1 103.70004 836.800000
2201 18786 11173 1 109.50000 418.400000
2201 18786 18785 1 103.70004 836.800000
11173 18786 18785 1 103.70004 836.800000
18785 18787 18788 1 119.8800511 375.723200
18785 18787 18789 1 120.0200517 532.790560
18788 18787 18789 1 119.8800511 375.723200
18787 18789 18790 1 119.8800511 375.723200
18787 18789 18791 1 120.0200517 532.790560
18790 18789 18791 1 119.8800511 375.723200
18789 18791 18792 1 119.8800511 375.723200
18789 18791 18793 1 120.0200517 532.790560
18792 18791 18793 1 119.8800511 375.723200
18784 18793 18791 1 120.0200517 532.790560
18784 18793 18794 1 119.8800511 375.723200
18791 18793 18794 1 119.8800511 375.723200
18795 18796 18797 1 119.8800511 375.723200
18795 18796 18805 1 119.8800511 375.723200
18797 18796 18805 1 120.0200517 532.790560
18796 18797 18798 1 121.3800518 83.010560
18796 18797 18799 1 120.0200517 532.790560
18798 18797 18799 1 121.3800518 83.010560
2233 18798 2234 1 109.50000 418.400000
2233 18798 11174 1 109.50000 418.400000
2233 18798 18797 1 103.70004 836.800000
2234 18798 11174 1 109.50000 418.400000
2234 18798 18797 1 103.70004 836.800000
11174 18798 18797 1 103.70004 836.800000
18797 18799 18800 1 119.8800511 375.723200
18797 18799 18801 1 120.0200517 532.790560
18800 18799 18801 1 119.8800511 375.723200
18799 18801 18802 1 119.8800511 375.723200
18799 18801 18803 1 120.0200517 532.790560
18802 18801 18803 1 119.8800511 375.723200
18801 18803 18804 1 119.8800511 375.723200
18801 18803 18805 1 120.0200517 532.790560
18804 18803 18805 1 119.8800511 375.723200
18796 18805 18803 1 120.0200517 532.790560
18796 18805 18806 1 119.8800511 375.723200
18803 18805 18806 1 119.8800511 375.723200
18807 18808 18809 1 119.8800511 375.723200
18807 18808 18817 1 119.8800511 375.723200
18809 18808 18817 1 120.0200517 532.790560
18808 18809 18810 1 121.3800518 83.010560
18808 18809 18811 1 120.0200517 532.790560
18810 18809 18811 1 121.3800518 83.010560
377 18810 1381 1 109.50000 418.400000
377 18810 2295 1 109.50000 418.400000
377 18810 18809 1 103.70004 836.800000
1381 18810 2295 1 109.50000 418.400000
1381 18810 18809 1 103.70004 836.800000
2295 18810 18809 1 103.70004 836.800000
18809 18811 18812 1 119.8800511 375.723200
18809 18811 18813 1 120.0200517 532.790560
18812 18811 18813 1 119.8800511 375.723200
18811 18813 18814 1 119.8800511 375.723200
18811 18813 18815 1 120.0200517 532.790560
18814 18813 18815 1 119.8800511 375.723200
18813 18815 18816 1 119.8800511 375.723200
18813 18815 18817 1 120.0200517 532.790560
18816 18815 18817 1 119.8800511 375.723200
18808 18817 18815 1 120.0200517 532.790560
18808 18817 18818 1 119.8800511 375.723200
18815 18817 18818 1 119.8800511 375.723200
18819 18820 18821 1 119.8800511 375.723200
18819 18820 18829 1 119.8800511 375.723200
18821 18820 18829 1 120.0200517 532.790560
18820 18821 18822 1 121.3800518 83.010560
18820 18821 18823 1 120.0200517 532.790560
18822 18821 18823 1 121.3800518 83.010560
2296 18822 2297 1 109.50000 418.400000
2296 18822 2298 1 109.50000 418.400000
2296 18822 18821 1 103.70004 836.800000
2297 18822 2298 1 109.50000 418.400000
2297 18822 18821 1 103.70004 836.800000
2298 18822 18821 1 103.70004 836.800000
18821 18823 18824 1 119.8800511 375.723200
18821 18823 18825 1 120.0200517 532.790560
18824 18823 18825 1 119.8800511 375.723200
18823 18825 18826 1 119.8800511 375.723200
18823 18825 18827 1 120.0200517 532.790560
18826 18825 18827 1 119.8800511 375.723200
18825 18827 18828 1 119.8800511 375.723200
18825 18827 18829 1 120.0200517 532.790560
18828 18827 18829 1 119.8800511 375.723200
18820 18829 18827 1 120.0200517 532.790560
18820 18829 18830 1 119.8800511 375.723200
18827 18829 18830 1 119.8800511 375.723200
18831 18832 18833 1 119.8800511 375.723200
18831 18832 18841 1 119.8800511 375.723200
18833 18832 18841 1 120.0200517 532.790560
18832 18833 18834 1 121.3800518 83.010560
18832 18833 18835 1 120.0200517 532.790560
18834 18833 18835 1 121.3800518 83.010560
845 18834 2299 1 109.50000 418.400000
845 18834 11175 1 109.50000 418.400000
845 18834 18833 1 103.70004 836.800000
2299 18834 11175 1 109.50000 418.400000
2299 18834 18833 1 103.70004 836.800000
11175 18834 18833 1 103.70004 836.800000
18833 18835 18836 1 119.8800511 375.723200
18833 18835 18837 1 120.0200517 532.790560
18836 18835 18837 1 119.8800511 375.723200
18835 18837 18838 1 119.8800511 375.723200
18835 18837 18839 1 120.0200517 532.790560
18838 18837 18839 1 119.8800511 375.723200
18837 18839 18840 1 119.8800511 375.723200
18837 18839 18841 1 120.0200517 532.790560
18840 18839 18841 1 119.8800511 375.723200
18832 18841 18839 1 120.0200517 532.790560
18832 18841 18842 1 119.8800511 375.723200
18839 18841 18842 1 119.8800511 375.723200
18843 18844 18845 1 119.8800511 375.723200
18843 18844 18853 1 119.8800511 375.723200
18845 18844 18853 1 120.0200517 532.790560
18844 18845 18846 1 121.3800518 83.010560
18844 18845 18847 1 120.0200517 532.790560
18846 18845 18847 1 121.3800518 83.010560
142 18846 696 1 109.50000 418.400000
142 18846 2304 1 109.50000 418.400000
142 18846 18845 1 103.70004 836.800000
696 18846 2304 1 109.50000 418.400000
696 18846 18845 1 103.70004 836.800000
2304 18846 18845 1 103.70004 836.800000
18845 18847 18848 1 119.8800511 375.723200
18845 18847 18849 1 120.0200517 532.790560
18848 18847 18849 1 119.8800511 375.723200
18847 18849 18850 1 119.8800511 375.723200
18847 18849 18851 1 120.0200517 532.790560
18850 18849 18851 1 119.8800511 375.723200
18849 18851 18852 1 119.8800511 375.723200
18849 18851 18853 1 120.0200517 532.790560
18852 18851 18853 1 119.8800511 375.723200
18844 18853 18851 1 120.0200517 532.790560
18844 18853 18854 1 119.8800511 375.723200
18851 18853 18854 1 119.8800511 375.723200
18855 18856 18857 1 119.8800511 375.723200
18855 18856 18865 1 119.8800511 375.723200
18857 18856 18865 1 120.0200517 532.790560
18856 18857 18858 1 121.3800518 83.010560
18856 18857 18859 1 120.0200517 532.790560
18858 18857 18859 1 121.3800518 83.010560
320 18858 1044 1 109.50000 418.400000
320 18858 11176 1 109.50000 418.400000
320 18858 18857 1 103.70004 836.800000
1044 18858 11176 1 109.50000 418.400000
1044 18858 18857 1 103.70004 836.800000
11176 18858 18857 1 103.70004 836.800000
18857 18859 18860 1 119.8800511 375.723200
18857 18859 18861 1 120.0200517 532.790560
18860 18859 18861 1 119.8800511 375.723200
18859 18861 18862 1 119.8800511 375.723200
18859 18861 18863 1 120.0200517 532.790560
18862 18861 18863 1 119.8800511 375.723200
18861 18863 18864 1 119.8800511 375.723200
18861 18863 18865 1 120.0200517 532.790560
18864 18863 18865 1 119.8800511 375.723200
18856 18865 18863 1 120.0200517 532.790560
18856 18865 18866 1 119.8800511 375.723200
18863 18865 18866 1 119.8800511 375.723200
18867 18868 18869 1 119.8800511 375.723200
18867 18868 18877 1 119.8800511 375.723200
18869 18868 18877 1 120.0200517 532.790560
18868 18869 18870 1 121.3800518 83.010560
18868 18869 18871 1 120.0200517 532.790560
18870 18869 18871 1 121.3800518 83.010560
2324 18870 2325 1 109.50000 418.400000
2324 18870 11177 1 109.50000 418.400000
2324 18870 18869 1 103.70004 836.800000
2325 18870 11177 1 109.50000 418.400000
2325 18870 18869 1 103.70004 836.800000
11177 18870 18869 1 103.70004 836.800000
18869 18871 18872 1 119.8800511 375.723200
18869 18871 18873 1 120.0200517 532.790560
18872 18871 18873 1 119.8800511 375.723200
18871 18873 18874 1 119.8800511 375.723200
18871 18873 18875 1 120.0200517 532.790560
18874 18873 18875 1 119.8800511 375.723200
18873 18875 18876 1 119.8800511 375.723200
18873 18875 18877 1 120.0200517 532.790560
18876 18875 18877 1 119.8800511 375.723200
18868 18877 18875 1 120.0200517 532.790560
18868 18877 18878 1 119.8800511 375.723200
18875 18877 18878 1 119.8800511 375.723200
18879 18880 18881 1 119.8800511 375.723200
18879 18880 18889 1 119.8800511 375.723200
18881 18880 18889 1 120.0200517 532.790560
18880 18881 18882 1 121.3800518 83.010560
18880 18881 18883 1 120.0200517 532.790560
18882 18881 18883 1 121.3800518 83.010560
1022 18882 2429 1 109.50000 418.400000
1022 18882 2430 1 109.50000 418.400000
1022 18882 18881 1 103.70004 836.800000
2429 18882 2430 1 109.50000 418.400000
2429 18882 18881 1 103.70004 836.800000
2430 18882 18881 1 103.70004 836.800000
18881 18883 18884 1 119.8800511 375.723200
18881 18883 18885 1 120.0200517 532.790560
18884 18883 18885 1 119.8800511 375.723200
18883 18885 18886 1 119.8800511 375.723200
18883 18885 18887 1 120.0200517 532.790560
18886 18885 18887 1 119.8800511 375.723200
18885 18887 18888 1 119.8800511 375.723200
18885 18887 18889 1 120.0200517 532.790560
18888 18887 18889 1 119.8800511 375.723200
18880 18889 18887 1 120.0200517 532.790560
18880 18889 18890 1 119.8800511 375.723200
18887 18889 18890 1 119.8800511 375.723200
18891 18892 18893 1 119.8800511 375.723200
18891 18892 18901 1 119.8800511 375.723200
18893 18892 18901 1 120.0200517 532.790560
18892 18893 18894 1 121.3800518 83.010560
18892 18893 18895 1 120.0200517 532.790560
18894 18893 18895 1 121.3800518 83.010560
260 18894 2431 1 109.50000 418.400000
260 18894 2433 1 109.50000 418.400000
260 18894 18893 1 103.70004 836.800000
2431 18894 2433 1 109.50000 418.400000
2431 18894 18893 1 103.70004 836.800000
2433 18894 18893 1 103.70004 836.800000
18893 18895 18896 1 119.8800511 375.723200
18893 18895 18897 1 120.0200517 532.790560
18896 18895 18897 1 119.8800511 375.723200
18895 18897 18898 1 119.8800511 375.723200
18895 18897 18899 1 120.0200517 532.790560
18898 18897 18899 1 119.8800511 375.723200
18897 18899 18900 1 119.8800511 375.723200
18897 18899 18901 1 120.0200517 532.790560
18900 18899 18901 1 119.8800511 375.723200
18892 18901 18899 1 120.0200517 532.790560
18892 18901 18902 1 119.8800511 375.723200
18899 18901 18902 1 119.8800511 375.723200
18903 18904 18905 1 119.8800511 375.723200
18903 18904 18913 1 119.8800511 375.723200
18905 18904 18913 1 120.0200517 532.790560
18904 18905 18906 1 121.3800518 83.010560
18904 18905 18907 1 120.0200517 532.790560
18906 18905 18907 1 121.3800518 83.010560
2450 18906 2451 1 109.50000 418.400000
2450 18906 2452 1 109.50000 418.400000
2450 18906 18905 1 103.70004 836.800000
2451 18906 2452 1 109.50000 418.400000
2451 18906 18905 1 103.70004 836.800000
2452 18906 18905 1 103.70004 836.800000
18905 18907 18908 1 119.8800511 375.723200
18905 18907 18909 1 120.0200517 532.790560
18908 18907 18909 1 119.8800511 375.723200
18907 18909 18910 1 119.8800511 375.723200
18907 18909 18911 1 120.0200517 532.790560
18910 18909 18911 1 119.8800511 375.723200
18909 18911 18912 1 119.8800511 375.723200
18909 18911 18913 1 120.0200517 532.790560
18912 18911 18913 1 119.8800511 375.723200
18904 18913 18911 1 120.0200517 532.790560
18904 18913 18914 1 119.8800511 375.723200
18911 18913 18914 1 119.8800511 375.723200
18915 18916 18917 1 119.8800511 375.723200
18915 18916 18925 1 119.8800511 375.723200
18917 18916 18925 1 120.0200517 532.790560
18916 18917 18918 1 121.3800518 83.010560
18916 18917 18919 1 120.0200517 532.790560
18918 18917 18919 1 121.3800518 83.010560
2456 18918 2457 1 109.50000 418.400000
2456 18918 11178 1 109.50000 418.400000
2456 18918 18917 1 103.70004 836.800000
2457 18918 11178 1 109.50000 418.400000
2457 18918 18917 1 103.70004 836.800000
11178 18918 18917 1 103.70004 836.800000
18917 18919 18920 1 119.8800511 375.723200
18917 18919 18921 1 120.0200517 532.790560
18920 18919 18921 1 119.8800511 375.723200
18919 18921 18922 1 119.8800511 375.723200
18919 18921 18923 1 120.0200517 532.790560
18922 18921 18923 1 119.8800511 375.723200
18921 18923 18924 1 119.8800511 375.723200
18921 18923 18925 1 120.0200517 532.790560
18924 18923 18925 1 119.8800511 375.723200
18916 18925 18923 1 120.0200517 532.790560
18916 18925 18926 1 119.8800511 375.723200
18923 18925 18926 1 119.8800511 375.723200
18927 18928 18929 1 119.8800511 375.723200
18927 18928 18937 1 119.8800511 375.723200
18929 18928 18937 1 120.0200517 532.790560
18928 18929 18930 1 121.3800518 83.010560
18928 18929 18931 1 120.0200517 532.790560
18930 18929 18931 1 121.3800518 83.010560
2462 18930 2463 1 109.50000 418.400000
2462 18930 11179 1 109.50000 418.400000
2462 18930 18929 1 103.70004 836.800000
2463 18930 11179 1 109.50000 418.400000
2463 18930 18929 1 103.70004 836.800000
11179 18930 18929 1 103.70004 836.800000
18929 18931 18932 1 119.8800511 375.723200
18929 18931 18933 1 120.0200517 532.790560
18932 18931 18933 1 119.8800511 375.723200
18931 18933 18934 1 119.8800511 375.723200
18931 18933 18935 1 120.0200517 532.790560
18934 18933 18935 1 119.8800511 375.723200
18933 18935 18936 1 119.8800511 375.723200
18933 18935 18937 1 120.0200517 532.790560
18936 18935 18937 1 119.8800511 375.723200
18928 18937 18935 1 120.0200517 532.790560
18928 18937 18938 1 119.8800511 375.723200
18935 18937 18938 1 119.8800511 375.723200
18939 18940 18941 1 119.8800511 375.723200
18939 18940 18949 1 119.8800511 375.723200
18941 18940 18949 1 120.0200517 532.790560
18940 18941 18942 1 121.3800518 83.010560
18940 18941 18943 1 120.0200517 532.790560
18942 18941 18943 1 121.3800518 83.010560
2483 18942 2484 1 109.50000 418.400000
2483 18942 2485 1 109.50000 418.400000
2483 18942 18941 1 103.70004 836.800000
2484 18942 2485 1 109.50000 418.400000
2484 18942 18941 1 103.70004 836.800000
2485 18942 18941 1 103.70004 836.800000
18941 18943 18944 1 119.8800511 375.723200
18941 18943 18945 1 120.0200517 532.790560
18944 18943 18945 1 119.8800511 375.723200
18943 18945 18946 1 119.8800511 375.723200
18943 18945 18947 1 120.0200517 532.790560
18946 18945 18947 1 119.8800511 375.723200
18945 18947 18948 1 119.8800511 375.723200
18945 18947 18949 1 120.0200517 532.790560
18948 18947 18949 1 119.8800511 375.723200
18940 18949 18947 1 120.0200517 532.790560
18940 18949 18950 1 119.8800511 375.723200
18947 18949 18950 1 119.8800511 375.723200
18951 18952 18953 1 119.8800511 375.723200
18951 18952 18961 1 119.8800511 375.723200
18953 18952 18961 1 120.0200517 532.790560
18952 18953 18954 1 121.3800518 83.010560
18952 18953 18955 1 120.0200517 532.790560
18954 18953 18955 1 121.3800518 83.010560
2493 18954 2494 1 109.50000 418.400000
2493 18954 2495 1 109.50000 418.400000
2493 18954 18953 1 103.70004 836.800000
2494 18954 2495 1 109.50000 418.400000
2494 18954 18953 1 103.70004 836.800000
2495 18954 18953 1 103.70004 836.800000
18953 18955 18956 1 119.8800511 375.723200
18953 18955 18957 1 120.0200517 532.790560
18956 18955 18957 1 119.8800511 375.723200
18955 18957 18958 1 119.8800511 375.723200
18955 18957 18959 1 120.0200517 532.790560
18958 18957 18959 1 119.8800511 375.723200
18957 18959 18960 1 119.8800511 375.723200
18957 18959 18961 1 120.0200517 532.790560
18960 18959 18961 1 119.8800511 375.723200
18952 18961 18959 1 120.0200517 532.790560
18952 18961 18962 1 119.8800511 375.723200
18959 18961 18962 1 119.8800511 375.723200
18963 18964 18965 1 119.8800511 375.723200
18963 18964 18973 1 119.8800511 375.723200
18965 18964 18973 1 120.0200517 532.790560
18964 18965 18966 1 121.3800518 83.010560
18964 18965 18967 1 120.0200517 532.790560
18966 18965 18967 1 121.3800518 83.010560
2500 18966 2501 1 109.50000 418.400000
2500 18966 11180 1 109.50000 418.400000
2500 18966 18965 1 103.70004 836.800000
2501 18966 11180 1 109.50000 418.400000
2501 18966 18965 1 103.70004 836.800000
11180 18966 18965 1 103.70004 836.800000
18965 18967 18968 1 119.8800511 375.723200
18965 18967 18969 1 120.0200517 532.790560
18968 18967 18969 1 119.8800511 375.723200
18967 18969 18970 1 119.8800511 375.723200
18967 18969 18971 1 120.0200517 532.790560
18970 18969 18971 1 119.8800511 375.723200
18969 18971 18972 1 119.8800511 375.723200
18969 18971 18973 1 120.0200517 532.790560
18972 18971 18973 1 119.8800511 375.723200
18964 18973 18971 1 120.0200517 532.790560
18964 18973 18974 1 119.8800511 375.723200
18971 18973 18974 1 119.8800511 375.723200
18975 18976 18977 1 119.8800511 375.723200
18975 18976 18985 1 119.8800511 375.723200
18977 18976 18985 1 120.0200517 532.790560
18976 18977 18978 1 121.3800518 83.010560
18976 18977 18979 1 120.0200517 532.790560
18978 18977 18979 1 121.3800518 83.010560
2505 18978 2506 1 109.50000 418.400000
2505 18978 5440 1 109.50000 418.400000
2505 18978 18977 1 103.70004 836.800000
2506 18978 5440 1 109.50000 418.400000
2506 18978 18977 1 103.70004 836.800000
5440 18978 18977 1 103.70004 836.800000
18977 18979 18980 1 119.8800511 375.723200
18977 18979 18981 1 120.0200517 532.790560
18980 18979 18981 1 119.8800511 375.723200
18979 18981 18982 1 119.8800511 375.723200
18979 18981 18983 1 120.0200517 532.790560
18982 18981 18983 1 119.8800511 375.723200
18981 18983 18984 1 119.8800511 375.723200
18981 18983 18985 1 120.0200517 532.790560
18984 18983 18985 1 119.8800511 375.723200
18976 18985 18983 1 120.0200517 532.790560
18976 18985 18986 1 119.8800511 375.723200
18983 18985 18986 1 119.8800511 375.723200
18987 18988 18989 1 119.8800511 375.723200
18987 18988 18997 1 119.8800511 375.723200
18989 18988 18997 1 120.0200517 532.790560
18988 18989 18990 1 121.3800518 83.010560
18988 18989 18991 1 120.0200517 532.790560
18990 18989 18991 1 121.3800518 83.010560
2558 18990 2559 1 109.50000 418.400000
2558 18990 2560 1 109.50000 418.400000
2558 18990 18989 1 103.70004 836.800000
2559 18990 2560 1 109.50000 418.400000
2559 18990 18989 1 103.70004 836.800000
2560 18990 18989 1 103.70004 836.800000
18989 18991 18992 1 119.8800511 375.723200
18989 18991 18993 1 120.0200517 532.790560
18992 18991 18993 1 119.8800511 375.723200
18991 18993 18994 1 119.8800511 375.723200
18991 18993 18995 1 120.0200517 532.790560
18994 18993 18995 1 119.8800511 375.723200
18993 18995 18996 1 119.8800511 375.723200
18993 18995 18997 1 120.0200517 532.790560
18996 18995 18997 1 119.8800511 375.723200
18988 18997 18995 1 120.0200517 532.790560
18988 18997 18998 1 119.8800511 375.723200
18995 18997 18998 1 119.8800511 375.723200
18999 19000 19001 1 119.8800511 375.723200
18999 19000 19009 1 119.8800511 375.723200
19001 19000 19009 1 120.0200517 532.790560
19000 19001 19002 1 121.3800518 83.010560
19000 19001 19003 1 120.0200517 532.790560
19002 19001 19003 1 121.3800518 83.010560
2587 19002 2588 1 109.50000 418.400000
2587 19002 11181 1 109.50000 418.400000
2587 19002 19001 1 103.70004 836.800000
2588 19002 11181 1 109.50000 418.400000
2588 19002 19001 1 103.70004 836.800000
11181 19002 19001 1 103.70004 836.800000
19001 19003 19004 1 119.8800511 375.723200
19001 19003 19005 1 120.0200517 532.790560
19004 19003 19005 1 119.8800511 375.723200
19003 19005 19006 1 119.8800511 375.723200
19003 19005 19007 1 120.0200517 532.790560
19006 19005 19007 1 119.8800511 375.723200
19005 19007 19008 1 119.8800511 375.723200
19005 19007 19009 1 120.0200517 532.790560
19008 19007 19009 1 119.8800511 375.723200
19000 19009 19007 1 120.0200517 532.790560
19000 19009 19010 1 119.8800511 375.723200
19007 19009 19010 1 119.8800511 375.723200
19011 19012 19013 1 119.8800511 375.723200
19011 19012 19021 1 119.8800511 375.723200
19013 19012 19021 1 120.0200517 532.790560
19012 19013 19014 1 121.3800518 83.010560
19012 19013 19015 1 120.0200517 532.790560
19014 19013 19015 1 121.3800518 83.010560
2623 19014 2624 1 109.50000 418.400000
2623 19014 11182 1 109.50000 418.400000
2623 19014 19013 1 103.70004 836.800000
2624 19014 11182 1 109.50000 418.400000
2624 19014 19013 1 103.70004 836.800000
11182 19014 19013 1 103.70004 836.800000
19013 19015 19016 1 119.8800511 375.723200
19013 19015 19017 1 120.0200517 532.790560
19016 19015 19017 1 119.8800511 375.723200
19015 19017 19018 1 119.8800511 375.723200
19015 19017 19019 1 120.0200517 532.790560
19018 19017 19019 1 119.8800511 375.723200
19017 19019 19020 1 119.8800511 375.723200
19017 19019 19021 1 120.0200517 532.790560
19020 19019 19021 1 119.8800511 375.723200
19012 19021 19019 1 120.0200517 532.790560
19012 19021 19022 1 119.8800511 375.723200
19019 19021 19022 1 119.8800511 375.723200
19023 19024 19025 1 119.8800511 375.723200
19023 19024 19033 1 119.8800511 375.723200
19025 19024 19033 1 120.0200517 532.790560
19024 19025 19026 1 121.3800518 83.010560
19024 19025 19027 1 120.0200517 532.790560
19026 19025 19027 1 121.3800518 83.010560
2729 19026 2730 1 109.50000 418.400000
2729 19026 2731 1 109.50000 418.400000
2729 19026 19025 1 103.70004 836.800000
2730 19026 2731 1 109.50000 418.400000
2730 19026 19025 1 103.70004 836.800000
2731 19026 19025 1 103.70004 836.800000
19025 19027 19028 1 119.8800511 375.723200
19025 19027 19029 1 120.0200517 532.790560
19028 19027 19029 1 119.8800511 375.723200
19027 19029 19030 1 119.8800511 375.723200
19027 19029 19031 1 120.0200517 532.790560
19030 19029 19031 1 119.8800511 375.723200
19029 19031 19032 1 119.8800511 375.723200
19029 19031 19033 1 120.0200517 532.790560
19032 19031 19033 1 119.8800511 375.723200
19024 19033 19031 1 120.0200517 532.790560
19024 19033 19034 1 119.8800511 375.723200
19031 19033 19034 1 119.8800511 375.723200
19035 19036 19037 1 119.8800511 375.723200
19035 19036 19045 1 119.8800511 375.723200
19037 19036 19045 1 120.0200517 532.790560
19036 19037 19038 1 121.3800518 83.010560
19036 19037 19039 1 120.0200517 532.790560
19038 19037 19039 1 121.3800518 83.010560
2944 19038 2945 1 109.50000 418.400000
2944 19038 2946 1 109.50000 418.400000
2944 19038 19037 1 103.70004 836.800000
2945 19038 2946 1 109.50000 418.400000
2945 19038 19037 1 103.70004 836.800000
2946 19038 19037 1 103.70004 836.800000
19037 19039 19040 1 119.8800511 375.723200
19037 19039 19041 1 120.0200517 532.790560
19040 19039 19041 1 119.8800511 375.723200
19039 19041 19042 1 119.8800511 375.723200
19039 19041 19043 1 120.0200517 532.790560
19042 19041 19043 1 119.8800511 375.723200
19041 19043 19044 1 119.8800511 375.723200
19041 19043 19045 1 120.0200517 532.790560
19044 19043 19045 1 119.8800511 375.723200
19036 19045 19043 1 120.0200517 532.790560
19036 19045 19046 1 119.8800511 375.723200
19043 19045 19046 1 119.8800511 375.723200
19047 19048 19049 1 119.8800511 375.723200
19047 19048 19057 1 119.8800511 375.723200
19049 19048 19057 1 120.0200517 532.790560
19048 19049 19050 1 121.3800518 83.010560
19048 19049 19051 1 120.0200517 532.790560
19050 19049 19051 1 121.3800518 83.010560
2604 19050 2605 1 109.50000 418.400000
2604 19050 2991 1 109.50000 418.400000
2604 19050 19049 1 103.70004 836.800000
2605 19050 2991 1 109.50000 418.400000
2605 19050 19049 1 103.70004 836.800000
2991 19050 19049 1 103.70004 836.800000
19049 19051 19052 1 119.8800511 375.723200
19049 19051 19053 1 120.0200517 532.790560
19052 19051 19053 1 119.8800511 375.723200
19051 19053 19054 1 119.8800511 375.723200
19051 19053 19055 1 120.0200517 532.790560
19054 19053 19055 1 119.8800511 375.723200
19053 19055 19056 1 119.8800511 375.723200
19053 19055 19057 1 120.0200517 532.790560
19056 19055 19057 1 119.8800511 375.723200
19048 19057 19055 1 120.0200517 532.790560
19048 19057 19058 1 119.8800511 375.723200
19055 19057 19058 1 119.8800511 375.723200
19059 19060 19061 1 119.8800511 375.723200
19059 19060 19069 1 119.8800511 375.723200
19061 19060 19069 1 120.0200517 532.790560
19060 19061 19062 1 121.3800518 83.010560
19060 19061 19063 1 120.0200517 532.790560
19062 19061 19063 1 121.3800518 83.010560
2139 19062 2995 1 109.50000 418.400000
2139 19062 10649 1 109.50000 418.400000
2139 19062 19061 1 103.70004 836.800000
2995 19062 10649 1 109.50000 418.400000
2995 19062 19061 1 103.70004 836.800000
10649 19062 19061 1 103.70004 836.800000
19061 19063 19064 1 119.8800511 375.723200
19061 19063 19065 1 120.0200517 532.790560
19064 19063 19065 1 119.8800511 375.723200
19063 19065 19066 1 119.8800511 375.723200
19063 19065 19067 1 120.0200517 532.790560
19066 19065 19067 1 119.8800511 375.723200
19065 19067 19068 1 119.8800511 375.723200
19065 19067 19069 1 120.0200517 532.790560
19068 19067 19069 1 119.8800511 375.723200
19060 19069 19067 1 120.0200517 532.790560
19060 19069 19070 1 119.8800511 375.723200
19067 19069 19070 1 119.8800511 375.723200
19071 19072 19073 1 119.8800511 375.723200
19071 19072 19081 1 119.8800511 375.723200
19073 19072 19081 1 120.0200517 532.790560
19072 19073 19074 1 121.3800518 83.010560
19072 19073 19075 1 120.0200517 532.790560
19074 19073 19075 1 121.3800518 83.010560
3490 19074 10069 1 109.50000 418.400000
3490 19074 11185 1 109.50000 418.400000
3490 19074 19073 1 103.70004 836.800000
10069 19074 11185 1 109.50000 418.400000
10069 19074 19073 1 103.70004 836.800000
11185 19074 19073 1 103.70004 836.800000
19073 19075 19076 1 119.8800511 375.723200
19073 19075 19077 1 120.0200517 532.790560
19076 19075 19077 1 119.8800511 375.723200
19075 19077 19078 1 119.8800511 375.723200
19075 19077 19079 1 120.0200517 532.790560
19078 19077 19079 1 119.8800511 375.723200
19077 19079 19080 1 119.8800511 375.723200
19077 19079 19081 1 120.0200517 532.790560
19080 19079 19081 1 119.8800511 375.723200
19072 19081 19079 1 120.0200517 532.790560
19072 19081 19082 1 119.8800511 375.723200
19079 19081 19082 1 119.8800511 375.723200
19083 19084 19085 1 119.8800511 375.723200
19083 19084 19093 1 119.8800511 375.723200
19085 19084 19093 1 120.0200517 532.790560
19084 19085 19086 1 121.3800518 83.010560
19084 19085 19087 1 120.0200517 532.790560
19086 19085 19087 1 121.3800518 83.010560
3047 19086 3048 1 109.50000 418.400000
3047 19086 11187 1 109.50000 418.400000
3047 19086 19085 1 103.70004 836.800000
3048 19086 11187 1 109.50000 418.400000
3048 19086 19085 1 103.70004 836.800000
11187 19086 19085 1 103.70004 836.800000
19085 19087 19088 1 119.8800511 375.723200
19085 19087 19089 1 120.0200517 532.790560
19088 19087 19089 1 119.8800511 375.723200
19087 19089 19090 1 119.8800511 375.723200
19087 19089 19091 1 120.0200517 532.790560
19090 19089 19091 1 119.8800511 375.723200
19089 19091 19092 1 119.8800511 375.723200
19089 19091 19093 1 120.0200517 532.790560
19092 19091 19093 1 119.8800511 375.723200
19084 19093 19091 1 120.0200517 532.790560
19084 19093 19094 1 119.8800511 375.723200
19091 19093 19094 1 119.8800511 375.723200
19095 19096 19097 1 119.8800511 375.723200
19095 19096 19105 1 119.8800511 375.723200
19097 19096 19105 1 120.0200517 532.790560
19096 19097 19098 1 121.3800518 83.010560
19096 19097 19099 1 120.0200517 532.790560
19098 19097 19099 1 121.3800518 83.010560
3104 19098 3105 1 109.50000 418.400000
3104 19098 3106 1 109.50000 418.400000
3104 19098 19097 1 103.70004 836.800000
3105 19098 3106 1 109.50000 418.400000
3105 19098 19097 1 103.70004 836.800000
3106 19098 19097 1 103.70004 836.800000
19097 19099 19100 1 119.8800511 375.723200
19097 19099 19101 1 120.0200517 532.790560
19100 19099 19101 1 119.8800511 375.723200
19099 19101 19102 1 119.8800511 375.723200
19099 19101 19103 1 120.0200517 532.790560
19102 19101 19103 1 119.8800511 375.723200
19101 19103 19104 1 119.8800511 375.723200
19101 19103 19105 1 120.0200517 532.790560
19104 19103 19105 1 119.8800511 375.723200
19096 19105 19103 1 120.0200517 532.790560
19096 19105 19106 1 119.8800511 375.723200
19103 19105 19106 1 119.8800511 375.723200
19107 19108 19109 1 119.8800511 375.723200
19107 19108 19117 1 119.8800511 375.723200
19109 19108 19117 1 120.0200517 532.790560
19108 19109 19110 1 121.3800518 83.010560
19108 19109 19111 1 120.0200517 532.790560
19110 19109 19111 1 121.3800518 83.010560
440 19110 3109 1 109.50000 418.400000
440 19110 10195 1 109.50000 418.400000
440 19110 19109 1 103.70004 836.800000
3109 19110 10195 1 109.50000 418.400000
3109 19110 19109 1 103.70004 836.800000
10195 19110 19109 1 103.70004 836.800000
19109 19111 19112 1 119.8800511 375.723200
19109 19111 19113 1 120.0200517 532.790560
19112 19111 19113 1 119.8800511 375.723200
19111 19113 19114 1 119.8800511 375.723200
19111 19113 19115 1 120.0200517 532.790560
19114 19113 19115 1 119.8800511 375.723200
19113 19115 19116 1 119.8800511 375.723200
19113 19115 19117 1 120.0200517 532.790560
19116 19115 19117 1 119.8800511 375.723200
19108 19117 19115 1 120.0200517 532.790560
19108 19117 19118 1 119.8800511 375.723200
19115 19117 19118 1 119.8800511 375.723200
19119 19120 19121 1 119.8800511 375.723200
19119 19120 19129 1 119.8800511 375.723200
19121 19120 19129 1 120.0200517 532.790560
19120 19121 19122 1 121.3800518 83.010560
19120 19121 19123 1 120.0200517 532.790560
19122 19121 19123 1 121.3800518 83.010560
3147 19122 6233 1 109.50000 418.400000
3147 19122 11188 1 109.50000 418.400000
3147 19122 19121 1 103.70004 836.800000
6233 19122 11188 1 109.50000 418.400000
6233 19122 19121 1 103.70004 836.800000
11188 19122 19121 1 103.70004 836.800000
19121 19123 19124 1 119.8800511 375.723200
19121 19123 19125 1 120.0200517 532.790560
19124 19123 19125 1 119.8800511 375.723200
19123 19125 19126 1 119.8800511 375.723200
19123 19125 19127 1 120.0200517 532.790560
19126 19125 19127 1 119.8800511 375.723200
19125 19127 19128 1 119.8800511 375.723200
19125 19127 19129 1 120.0200517 532.790560
19128 19127 19129 1 119.8800511 375.723200
19120 19129 19127 1 120.0200517 532.790560
19120 19129 19130 1 119.8800511 375.723200
19127 19129 19130 1 119.8800511 375.723200
19131 19132 19133 1 119.8800511 375.723200
19131 19132 19141 1 119.8800511 375.723200
19133 19132 19141 1 120.0200517 532.790560
19132 19133 19134 1 121.3800518 83.010560
19132 19133 19135 1 120.0200517 532.790560
19134 19133 19135 1 121.3800518 83.010560
3148 19134 3149 1 109.50000 418.400000
3148 19134 11189 1 109.50000 418.400000
3148 19134 19133 1 103.70004 836.800000
3149 19134 11189 1 109.50000 418.400000
3149 19134 19133 1 103.70004 836.800000
11189 19134 19133 1 103.70004 836.800000
19133 19135 19136 1 119.8800511 375.723200
19133 19135 19137 1 120.0200517 532.790560
19136 19135 19137 1 119.8800511 375.723200
19135 19137 19138 1 119.8800511 375.723200
19135 19137 19139 1 120.0200517 532.790560
19138 19137 19139 1 119.8800511 375.723200
19137 19139 19140 1 119.8800511 375.723200
19137 19139 19141 1 120.0200517 532.790560
19140 19139 19141 1 119.8800511 375.723200
19132 19141 19139 1 120.0200517 532.790560
19132 19141 19142 1 119.8800511 375.723200
19139 19141 19142 1 119.8800511 375.723200
19143 19144 19145 1 119.8800511 375.723200
19143 19144 19153 1 119.8800511 375.723200
19145 19144 19153 1 120.0200517 532.790560
19144 19145 19146 1 121.3800518 83.010560
19144 19145 19147 1 120.0200517 532.790560
19146 19145 19147 1 121.3800518 83.010560
3109 19146 3161 1 109.50000 418.400000
3109 19146 11190 1 109.50000 418.400000
3109 19146 19145 1 103.70004 836.800000
3161 19146 11190 1 109.50000 418.400000
3161 19146 19145 1 103.70004 836.800000
11190 19146 19145 1 103.70004 836.800000
19145 19147 19148 1 119.8800511 375.723200
19145 19147 19149 1 120.0200517 532.790560
19148 19147 19149 1 119.8800511 375.723200
19147 19149 19150 1 119.8800511 375.723200
19147 19149 19151 1 120.0200517 532.790560
19150 19149 19151 1 119.8800511 375.723200
19149 19151 19152 1 119.8800511 375.723200
19149 19151 19153 1 120.0200517 532.790560
19152 19151 19153 1 119.8800511 375.723200
19144 19153 19151 1 120.0200517 532.790560
19144 19153 19154 1 119.8800511 375.723200
19151 19153 19154 1 119.8800511 375.723200
19155 19156 19157 1 119.8800511 375.723200
19155 19156 19165 1 119.8800511 375.723200
19157 19156 19165 1 120.0200517 532.790560
19156 19157 19158 1 121.3800518 83.010560
19156 19157 19159 1 120.0200517 532.790560
19158 19157 19159 1 121.3800518 83.010560
3188 19158 3189 1 109.50000 418.400000
3188 19158 3248 1 109.50000 418.400000
3188 19158 19157 1 103.70004 836.800000
3189 19158 3248 1 109.50000 418.400000
3189 19158 19157 1 103.70004 836.800000
3248 19158 19157 1 103.70004 836.800000
19157 19159 19160 1 119.8800511 375.723200
19157 19159 19161 1 120.0200517 532.790560
19160 19159 19161 1 119.8800511 375.723200
19159 19161 19162 1 119.8800511 375.723200
19159 19161 19163 1 120.0200517 532.790560
19162 19161 19163 1 119.8800511 375.723200
19161 19163 19164 1 119.8800511 375.723200
19161 19163 19165 1 120.0200517 532.790560
19164 19163 19165 1 119.8800511 375.723200
19156 19165 19163 1 120.0200517 532.790560
19156 19165 19166 1 119.8800511 375.723200
19163 19165 19166 1 119.8800511 375.723200
19167 19168 19169 1 119.8800511 375.723200
19167 19168 19177 1 119.8800511 375.723200
19169 19168 19177 1 120.0200517 532.790560
19168 19169 19170 1 121.3800518 83.010560
19168 19169 19171 1 120.0200517 532.790560
19170 19169 19171 1 121.3800518 83.010560
3223 19170 3224 1 109.50000 418.400000
3223 19170 11191 1 109.50000 418.400000
3223 19170 19169 1 103.70004 836.800000
3224 19170 11191 1 109.50000 418.400000
3224 19170 19169 1 103.70004 836.800000
11191 19170 19169 1 103.70004 836.800000
19169 19171 19172 1 119.8800511 375.723200
19169 19171 19173 1 120.0200517 532.790560
19172 19171 19173 1 119.8800511 375.723200
19171 19173 19174 1 119.8800511 375.723200
19171 19173 19175 1 120.0200517 532.790560
19174 19173 19175 1 119.8800511 375.723200
19173 19175 19176 1 119.8800511 375.723200
19173 19175 19177 1 120.0200517 532.790560
19176 19175 19177 1 119.8800511 375.723200
19168 19177 19175 1 120.0200517 532.790560
19168 19177 19178 1 119.8800511 375.723200
19175 19177 19178 1 119.8800511 375.723200
19179 19180 19181 1 119.8800511 375.723200
19179 19180 19189 1 119.8800511 375.723200
19181 19180 19189 1 120.0200517 532.790560
19180 19181 19182 1 121.3800518 83.010560
19180 19181 19183 1 120.0200517 532.790560
19182 19181 19183 1 121.3800518 83.010560
3284 19182 3285 1 109.50000 418.400000
3284 19182 11192 1 109.50000 418.400000
3284 19182 19181 1 103.70004 836.800000
3285 19182 11192 1 109.50000 418.400000
3285 19182 19181 1 103.70004 836.800000
11192 19182 19181 1 103.70004 836.800000
19181 19183 19184 1 119.8800511 375.723200
19181 19183 19185 1 120.0200517 532.790560
19184 19183 19185 1 119.8800511 375.723200
19183 19185 19186 1 119.8800511 375.723200
19183 19185 19187 1 120.0200517 532.790560
19186 19185 19187 1 119.8800511 375.723200
19185 19187 19188 1 119.8800511 375.723200
19185 19187 19189 1 120.0200517 532.790560
19188 19187 19189 1 119.8800511 375.723200
19180 19189 19187 1 120.0200517 532.790560
19180 19189 19190 1 119.8800511 375.723200
19187 19189 19190 1 119.8800511 375.723200
19191 19192 19193 1 119.8800511 375.723200
19191 19192 19201 1 119.8800511 375.723200
19193 19192 19201 1 120.0200517 532.790560
19192 19193 19194 1 121.3800518 83.010560
19192 19193 19195 1 120.0200517 532.790560
19194 19193 19195 1 121.3800518 83.010560
3302 19194 3303 1 109.50000 418.400000
3302 19194 3304 1 109.50000 418.400000
3302 19194 19193 1 103.70004 836.800000
3303 19194 3304 1 109.50000 418.400000
3303 19194 19193 1 103.70004 836.800000
3304 19194 19193 1 103.70004 836.800000
19193 19195 19196 1 119.8800511 375.723200
19193 19195 19197 1 120.0200517 532.790560
19196 19195 19197 1 119.8800511 375.723200
19195 19197 19198 1 119.8800511 375.723200
19195 19197 19199 1 120.0200517 532.790560
19198 19197 19199 1 119.8800511 375.723200
19197 19199 19200 1 119.8800511 375.723200
19197 19199 19201 1 120.0200517 532.790560
19200 19199 19201 1 119.8800511 375.723200
19192 19201 19199 1 120.0200517 532.790560
19192 19201 19202 1 119.8800511 375.723200
19199 19201 19202 1 119.8800511 375.723200
19203 19204 19205 1 119.8800511 375.723200
19203 19204 19213 1 119.8800511 375.723200
19205 19204 19213 1 120.0200517 532.790560
19204 19205 19206 1 121.3800518 83.010560
19204 19205 19207 1 120.0200517 532.790560
19206 19205 19207 1 121.3800518 83.010560
3333 19206 3334 1 109.50000 418.400000
3333 19206 3335 1 109.50000 418.400000
3333 19206 19205 1 103.70004 836.800000
3334 19206 3335 1 109.50000 418.400000
3334 19206 19205 1 103.70004 836.800000
3335 19206 19205 1 103.70004 836.800000
19205 19207 19208 1 119.8800511 375.723200
19205 19207 19209 1 120.0200517 532.790560
19208 19207 19209 1 119.8800511 375.723200
19207 19209 19210 1 119.8800511 375.723200
19207 19209 19211 1 120.0200517 532.790560
19210 19209 19211 1 119.8800511 375.723200
19209 19211 19212 1 119.8800511 375.723200
19209 19211 19213 1 120.0200517 532.790560
19212 19211 19213 1 119.8800511 375.723200
19204 19213 19211 1 120.0200517 532.790560
19204 19213 19214 1 119.8800511 375.723200
19211 19213 19214 1 119.8800511 375.723200
19215 19216 19217 1 119.8800511 375.723200
19215 19216 19225 1 119.8800511 375.723200
19217 19216 19225 1 120.0200517 532.790560
19216 19217 19218 1 121.3800518 83.010560
19216 19217 19219 1 120.0200517 532.790560
19218 19217 19219 1 121.3800518 83.010560
3351 19218 3352 1 109.50000 418.400000
3351 19218 3353 1 109.50000 418.400000
3351 19218 19217 1 103.70004 836.800000
3352 19218 3353 1 109.50000 418.400000
3352 19218 19217 1 103.70004 836.800000
3353 19218 19217 1 103.70004 836.800000
19217 19219 19220 1 119.8800511 375.723200
19217 19219 19221 1 120.0200517 532.790560
19220 19219 19221 1 119.8800511 375.723200
19219 19221 19222 1 119.8800511 375.723200
19219 19221 19223 1 120.0200517 532.790560
19222 19221 19223 1 119.8800511 375.723200
19221 19223 19224 1 119.8800511 375.723200
19221 19223 19225 1 120.0200517 532.790560
19224 19223 19225 1 119.8800511 375.723200
19216 19225 19223 1 120.0200517 532.790560
19216 19225 19226 1 119.8800511 375.723200
19223 19225 19226 1 119.8800511 375.723200
19227 19228 19229 1 119.8800511 375.723200
19227 19228 19237 1 119.8800511 375.723200
19229 19228 19237 1 120.0200517 532.790560
19228 19229 19230 1 121.3800518 83.010560
19228 19229 19231 1 120.0200517 532.790560
19230 19229 19231 1 121.3800518 83.010560
125 19230 3371 1 109.50000 418.400000
125 19230 11193 1 109.50000 418.400000
125 19230 19229 1 103.70004 836.800000
3371 19230 11193 1 109.50000 418.400000
3371 19230 19229 1 103.70004 836.800000
11193 19230 19229 1 103.70004 836.800000
19229 19231 19232 1 119.8800511 375.723200
19229 19231 19233 1 120.0200517 532.790560
19232 19231 19233 1 119.8800511 375.723200
19231 19233 19234 1 119.8800511 375.723200
19231 19233 19235 1 120.0200517 532.790560
19234 19233 19235 1 119.8800511 375.723200
19233 19235 19236 1 119.8800511 375.723200
19233 19235 19237 1 120.0200517 532.790560
19236 19235 19237 1 119.8800511 375.723200
19228 19237 19235 1 120.0200517 532.790560
19228 19237 19238 1 119.8800511 375.723200
19235 19237 19238 1 119.8800511 375.723200
19239 19240 19241 1 119.8800511 375.723200
19239 19240 19249 1 119.8800511 375.723200
19241 19240 19249 1 120.0200517 532.790560
19240 19241 19242 1 121.3800518 83.010560
19240 19241 19243 1 120.0200517 532.790560
19242 19241 19243 1 121.3800518 83.010560
3376 19242 3377 1 109.50000 418.400000
3376 19242 3378 1 109.50000 418.400000
3376 19242 19241 1 103.70004 836.800000
3377 19242 3378 1 109.50000 418.400000
3377 19242 19241 1 103.70004 836.800000
3378 19242 19241 1 103.70004 836.800000
19241 19243 19244 1 119.8800511 375.723200
19241 19243 19245 1 120.0200517 532.790560
19244 19243 19245 1 119.8800511 375.723200
19243 19245 19246 1 119.8800511 375.723200
19243 19245 19247 1 120.0200517 532.790560
19246 19245 19247 1 119.8800511 375.723200
19245 19247 19248 1 119.8800511 375.723200
19245 19247 19249 1 120.0200517 532.790560
19248 19247 19249 1 119.8800511 375.723200
19240 19249 19247 1 120.0200517 532.790560
19240 19249 19250 1 119.8800511 375.723200
19247 19249 19250 1 119.8800511 375.723200
19251 19252 19253 1 119.8800511 375.723200
19251 19252 19261 1 119.8800511 375.723200
19253 19252 19261 1 120.0200517 532.790560
19252 19253 19254 1 121.3800518 83.010560
19252 19253 19255 1 120.0200517 532.790560
19254 19253 19255 1 121.3800518 83.010560
3379 19254 3380 1 109.50000 418.400000
3379 19254 11194 1 109.50000 418.400000
3379 19254 19253 1 103.70004 836.800000
3380 19254 11194 1 109.50000 418.400000
3380 19254 19253 1 103.70004 836.800000
11194 19254 19253 1 103.70004 836.800000
19253 19255 19256 1 119.8800511 375.723200
19253 19255 19257 1 120.0200517 532.790560
19256 19255 19257 1 119.8800511 375.723200
19255 19257 19258 1 119.8800511 375.723200
19255 19257 19259 1 120.0200517 532.790560
19258 19257 19259 1 119.8800511 375.723200
19257 19259 19260 1 119.8800511 375.723200
19257 19259 19261 1 120.0200517 532.790560
19260 19259 19261 1 119.8800511 375.723200
19252 19261 19259 1 120.0200517 532.790560
19252 19261 19262 1 119.8800511 375.723200
19259 19261 19262 1 119.8800511 375.723200
19263 19264 19265 1 119.8800511 375.723200
19263 19264 19273 1 119.8800511 375.723200
19265 19264 19273 1 120.0200517 532.790560
19264 19265 19266 1 121.3800518 83.010560
19264 19265 19267 1 120.0200517 532.790560
19266 19265 19267 1 121.3800518 83.010560
3385 19266 3386 1 109.50000 418.400000
3385 19266 3387 1 109.50000 418.400000
3385 19266 19265 1 103.70004 836.800000
3386 19266 3387 1 109.50000 418.400000
3386 19266 19265 1 103.70004 836.800000
3387 19266 19265 1 103.70004 836.800000
19265 19267 19268 1 119.8800511 375.723200
19265 19267 19269 1 120.0200517 532.790560
19268 19267 19269 1 119.8800511 375.723200
19267 19269 19270 1 119.8800511 375.723200
19267 19269 19271 1 120.0200517 532.790560
19270 19269 19271 1 119.8800511 375.723200
19269 19271 19272 1 119.8800511 375.723200
19269 19271 19273 1 120.0200517 532.790560
19272 19271 19273 1 119.8800511 375.723200
19264 19273 19271 1 120.0200517 532.790560
19264 19273 19274 1 119.8800511 375.723200
19271 19273 19274 1 119.8800511 375.723200
19275 19276 19277 1 119.8800511 375.723200
19275 19276 19285 1 119.8800511 375.723200
19277 19276 19285 1 120.0200517 532.790560
19276 19277 19278 1 121.3800518 83.010560
19276 19277 19279 1 120.0200517 532.790560
19278 19277 19279 1 121.3800518 83.010560
3417 19278 3418 1 109.50000 418.400000
3417 19278 3419 1 109.50000 418.400000
3417 19278 19277 1 103.70004 836.800000
3418 19278 3419 1 109.50000 418.400000
3418 19278 19277 1 103.70004 836.800000
3419 19278 19277 1 103.70004 836.800000
19277 19279 19280 1 119.8800511 375.723200
19277 19279 19281 1 120.0200517 532.790560
19280 19279 19281 1 119.8800511 375.723200
19279 19281 19282 1 119.8800511 375.723200
19279 19281 19283 1 120.0200517 532.790560
19282 19281 19283 1 119.8800511 375.723200
19281 19283 19284 1 119.8800511 375.723200
19281 19283 19285 1 120.0200517 532.790560
19284 19283 19285 1 119.8800511 375.723200
19276 19285 19283 1 120.0200517 532.790560
19276 19285 19286 1 119.8800511 375.723200
19283 19285 19286 1 119.8800511 375.723200
19287 19288 19289 1 119.8800511 375.723200
19287 19288 19297 1 119.8800511 375.723200
19289 19288 19297 1 120.0200517 532.790560
19288 19289 19290 1 121.3800518 83.010560
19288 19289 19291 1 120.0200517 532.790560
19290 19289 19291 1 121.3800518 83.010560
3430 19290 3431 1 109.50000 418.400000
3430 19290 11195 1 109.50000 418.400000
3430 19290 19289 1 103.70004 836.800000
3431 19290 11195 1 109.50000 418.400000
3431 19290 19289 1 103.70004 836.800000
11195 19290 19289 1 103.70004 836.800000
19289 19291 19292 1 119.8800511 375.723200
19289 19291 19293 1 120.0200517 532.790560
19292 19291 19293 1 119.8800511 375.723200
19291 19293 19294 1 119.8800511 375.723200
19291 19293 19295 1 120.0200517 532.790560
19294 19293 19295 1 119.8800511 375.723200
19293 19295 19296 1 119.8800511 375.723200
19293 19295 19297 1 120.0200517 532.790560
19296 19295 19297 1 119.8800511 375.723200
19288 19297 19295 1 120.0200517 532.790560
19288 19297 19298 1 119.8800511 375.723200
19295 19297 19298 1 119.8800511 375.723200
19299 19300 19301 1 119.8800511 375.723200
19299 19300 19309 1 119.8800511 375.723200
19301 19300 19309 1 120.0200517 532.790560
19300 19301 19302 1 121.3800518 83.010560
19300 19301 19303 1 120.0200517 532.790560
19302 19301 19303 1 121.3800518 83.010560
3477 19302 3478 1 109.50000 418.400000
3477 19302 3479 1 109.50000 418.400000
3477 19302 19301 1 103.70004 836.800000
3478 19302 3479 1 109.50000 418.400000
3478 19302 19301 1 103.70004 836.800000
3479 19302 19301 1 103.70004 836.800000
19301 19303 19304 1 119.8800511 375.723200
19301 19303 19305 1 120.0200517 532.790560
19304 19303 19305 1 119.8800511 375.723200
19303 19305 19306 1 119.8800511 375.723200
19303 19305 19307 1 120.0200517 532.790560
19306 19305 19307 1 119.8800511 375.723200
19305 19307 19308 1 119.8800511 375.723200
19305 19307 19309 1 120.0200517 532.790560
19308 19307 19309 1 119.8800511 375.723200
19300 19309 19307 1 120.0200517 532.790560
19300 19309 19310 1 119.8800511 375.723200
19307 19309 19310 1 119.8800511 375.723200
19311 19312 19313 1 119.8800511 375.723200
19311 19312 19321 1 119.8800511 375.723200
19313 19312 19321 1 120.0200517 532.790560
19312 19313 19314 1 121.3800518 83.010560
19312 19313 19315 1 120.0200517 532.790560
19314 19313 19315 1 121.3800518 83.010560
3525 19314 3526 1 109.50000 418.400000
3525 19314 3527 1 109.50000 418.400000
3525 19314 19313 1 103.70004 836.800000
3526 19314 3527 1 109.50000 418.400000
3526 19314 19313 1 103.70004 836.800000
3527 19314 19313 1 103.70004 836.800000
19313 19315 19316 1 119.8800511 375.723200
19313 19315 19317 1 120.0200517 532.790560
19316 19315 19317 1 119.8800511 375.723200
19315 19317 19318 1 119.8800511 375.723200
19315 19317 19319 1 120.0200517 532.790560
19318 19317 19319 1 119.8800511 375.723200
19317 19319 19320 1 119.8800511 375.723200
19317 19319 19321 1 120.0200517 532.790560
19320 19319 19321 1 119.8800511 375.723200
19312 19321 19319 1 120.0200517 532.790560
19312 19321 19322 1 119.8800511 375.723200
19319 19321 19322 1 119.8800511 375.723200
19323 19324 19325 1 119.8800511 375.723200
19323 19324 19333 1 119.8800511 375.723200
19325 19324 19333 1 120.0200517 532.790560
19324 19325 19326 1 121.3800518 83.010560
19324 19325 19327 1 120.0200517 532.790560
19326 19325 19327 1 121.3800518 83.010560
3559 19326 3560 1 109.50000 418.400000
3559 19326 3561 1 109.50000 418.400000
3559 19326 19325 1 103.70004 836.800000
3560 19326 3561 1 109.50000 418.400000
3560 19326 19325 1 103.70004 836.800000
3561 19326 19325 1 103.70004 836.800000
19325 19327 19328 1 119.8800511 375.723200
19325 19327 19329 1 120.0200517 532.790560
19328 19327 19329 1 119.8800511 375.723200
19327 19329 19330 1 119.8800511 375.723200
19327 19329 19331 1 120.0200517 532.790560
19330 19329 19331 1 119.8800511 375.723200
19329 19331 19332 1 119.8800511 375.723200
19329 19331 19333 1 120.0200517 532.790560
19332 19331 19333 1 119.8800511 375.723200
19324 19333 19331 1 120.0200517 532.790560
19324 19333 19334 1 119.8800511 375.723200
19331 19333 19334 1 119.8800511 375.723200
19335 19336 19337 1 119.8800511 375.723200
19335 19336 19345 1 119.8800511 375.723200
19337 19336 19345 1 120.0200517 532.790560
19336 19337 19338 1 121.3800518 83.010560
19336 19337 19339 1 120.0200517 532.790560
19338 19337 19339 1 121.3800518 83.010560
3566 19338 3567 1 109.50000 418.400000
3566 19338 3568 1 109.50000 418.400000
3566 19338 19337 1 103.70004 836.800000
3567 19338 3568 1 109.50000 418.400000
3567 19338 19337 1 103.70004 836.800000
3568 19338 19337 1 103.70004 836.800000
19337 19339 19340 1 119.8800511 375.723200
19337 19339 19341 1 120.0200517 532.790560
19340 19339 19341 1 119.8800511 375.723200
19339 19341 19342 1 119.8800511 375.723200
19339 19341 19343 1 120.0200517 532.790560
19342 19341 19343 1 119.8800511 375.723200
19341 19343 19344 1 119.8800511 375.723200
19341 19343 19345 1 120.0200517 532.790560
19344 19343 19345 1 119.8800511 375.723200
19336 19345 19343 1 120.0200517 532.790560
19336 19345 19346 1 119.8800511 375.723200
19343 19345 19346 1 119.8800511 375.723200
19347 19348 19349 1 119.8800511 375.723200
19347 19348 19357 1 119.8800511 375.723200
19349 19348 19357 1 120.0200517 532.790560
19348 19349 19350 1 121.3800518 83.010560
19348 19349 19351 1 120.0200517 532.790560
19350 19349 19351 1 121.3800518 83.010560
3569 19350 3570 1 109.50000 418.400000
3569 19350 11264 1 109.50000 418.400000
3569 19350 19349 1 103.70004 836.800000
3570 19350 11264 1 109.50000 418.400000
3570 19350 19349 1 103.70004 836.800000
11264 19350 19349 1 103.70004 836.800000
19349 19351 19352 1 119.8800511 375.723200
19349 19351 19353 1 120.0200517 532.790560
19352 19351 19353 1 119.8800511 375.723200
19351 19353 19354 1 119.8800511 375.723200
19351 19353 19355 1 120.0200517 532.790560
19354 19353 19355 1 119.8800511 375.723200
19353 19355 19356 1 119.8800511 375.723200
19353 19355 19357 1 120.0200517 532.790560
19356 19355 19357 1 119.8800511 375.723200
19348 19357 19355 1 120.0200517 532.790560
19348 19357 19358 1 119.8800511 375.723200
19355 19357 19358 1 119.8800511 375.723200
19359 19360 19361 1 119.8800511 375.723200
19359 19360 19369 1 119.8800511 375.723200
19361 19360 19369 1 120.0200517 532.790560
19360 19361 19362 1 121.3800518 83.010560
19360 19361 19363 1 120.0200517 532.790560
19362 19361 19363 1 121.3800518 83.010560
1123 19362 3601 1 109.50000 418.400000
1123 19362 11270 1 109.50000 418.400000
1123 19362 19361 1 103.70004 836.800000
3601 19362 11270 1 109.50000 418.400000
3601 19362 19361 1 103.70004 836.800000
11270 19362 19361 1 103.70004 836.800000
19361 19363 19364 1 119.8800511 375.723200
19361 19363 19365 1 120.0200517 532.790560
19364 19363 19365 1 119.8800511 375.723200
19363 19365 19366 1 119.8800511 375.723200
19363 19365 19367 1 120.0200517 532.790560
19366 19365 19367 1 119.8800511 375.723200
19365 19367 19368 1 119.8800511 375.723200
19365 19367 19369 1 120.0200517 532.790560
19368 19367 19369 1 119.8800511 375.723200
19360 19369 19367 1 120.0200517 532.790560
19360 19369 19370 1 119.8800511 375.723200
19367 19369 19370 1 119.8800511 375.723200
19371 19372 19373 1 119.8800511 375.723200
19371 19372 19381 1 119.8800511 375.723200
19373 19372 19381 1 120.0200517 532.790560
19372 19373 19374 1 121.3800518 83.010560
19372 19373 19375 1 120.0200517 532.790560
19374 19373 19375 1 121.3800518 83.010560
1939 19374 3627 1 109.50000 418.400000
1939 19374 11196 1 109.50000 418.400000
1939 19374 19373 1 103.70004 836.800000
3627 19374 11196 1 109.50000 418.400000
3627 19374 19373 1 103.70004 836.800000
11196 19374 19373 1 103.70004 836.800000
19373 19375 19376 1 119.8800511 375.723200
19373 19375 19377 1 120.0200517 532.790560
19376 19375 19377 1 119.8800511 375.723200
19375 19377 19378 1 119.8800511 375.723200
19375 19377 19379 1 120.0200517 532.790560
19378 19377 19379 1 119.8800511 375.723200
19377 19379 19380 1 119.8800511 375.723200
19377 19379 19381 1 120.0200517 532.790560
19380 19379 19381 1 119.8800511 375.723200
19372 19381 19379 1 120.0200517 532.790560
19372 19381 19382 1 119.8800511 375.723200
19379 19381 19382 1 119.8800511 375.723200
19383 19384 19385 1 119.8800511 375.723200
19383 19384 19393 1 119.8800511 375.723200
19385 19384 19393 1 120.0200517 532.790560
19384 19385 19386 1 121.3800518 83.010560
19384 19385 19387 1 120.0200517 532.790560
19386 19385 19387 1 121.3800518 83.010560
3676 19386 3677 1 109.50000 418.400000
3676 19386 11197 1 109.50000 418.400000
3676 19386 19385 1 103.70004 836.800000
3677 19386 11197 1 109.50000 418.400000
3677 19386 19385 1 103.70004 836.800000
11197 19386 19385 1 103.70004 836.800000
19385 19387 19388 1 119.8800511 375.723200
19385 19387 19389 1 120.0200517 532.790560
19388 19387 19389 1 119.8800511 375.723200
19387 19389 19390 1 119.8800511 375.723200
19387 19389 19391 1 120.0200517 532.790560
19390 19389 19391 1 119.8800511 375.723200
19389 19391 19392 1 119.8800511 375.723200
19389 19391 19393 1 120.0200517 532.790560
19392 19391 19393 1 119.8800511 375.723200
19384 19393 19391 1 120.0200517 532.790560
19384 19393 19394 1 119.8800511 375.723200
19391 19393 19394 1 119.8800511 375.723200
19395 19396 19397 1 119.8800511 375.723200
19395 19396 19405 1 119.8800511 375.723200
19397 19396 19405 1 120.0200517 532.790560
19396 19397 19398 1 121.3800518 83.010560
19396 19397 19399 1 120.0200517 532.790560
19398 19397 19399 1 121.3800518 83.010560
2095 19398 3736 1 109.50000 418.400000
2095 19398 3737 1 109.50000 418.400000
2095 19398 19397 1 103.70004 836.800000
3736 19398 3737 1 109.50000 418.400000
3736 19398 19397 1 103.70004 836.800000
3737 19398 19397 1 103.70004 836.800000
19397 19399 19400 1 119.8800511 375.723200
19397 19399 19401 1 120.0200517 532.790560
19400 19399 19401 1 119.8800511 375.723200
19399 19401 19402 1 119.8800511 375.723200
19399 19401 19403 1 120.0200517 532.790560
19402 19401 19403 1 119.8800511 375.723200
19401 19403 19404 1 119.8800511 375.723200
19401 19403 19405 1 120.0200517 532.790560
19404 19403 19405 1 119.8800511 375.723200
19396 19405 19403 1 120.0200517 532.790560
19396 19405 19406 1 119.8800511 375.723200
19403 19405 19406 1 119.8800511 375.723200
19407 19408 19409 1 119.8800511 375.723200
19407 19408 19417 1 119.8800511 375.723200
19409 19408 19417 1 120.0200517 532.790560
19408 19409 19410 1 121.3800518 83.010560
19408 19409 19411 1 120.0200517 532.790560
19410 19409 19411 1 121.3800518 83.010560
458 19410 3771 1 109.50000 418.400000
458 19410 3772 1 109.50000 418.400000
458 19410 19409 1 103.70004 836.800000
3771 19410 3772 1 109.50000 418.400000
3771 19410 19409 1 103.70004 836.800000
3772 19410 19409 1 103.70004 836.800000
19409 19411 19412 1 119.8800511 375.723200
19409 19411 19413 1 120.0200517 532.790560
19412 19411 19413 1 119.8800511 375.723200
19411 19413 19414 1 119.8800511 375.723200
19411 19413 19415 1 120.0200517 532.790560
19414 19413 19415 1 119.8800511 375.723200
19413 19415 19416 1 119.8800511 375.723200
19413 19415 19417 1 120.0200517 532.790560
19416 19415 19417 1 119.8800511 375.723200
19408 19417 19415 1 120.0200517 532.790560
19408 19417 19418 1 119.8800511 375.723200
19415 19417 19418 1 119.8800511 375.723200
19419 19420 19421 1 119.8800511 375.723200
19419 19420 19429 1 119.8800511 375.723200
19421 19420 19429 1 120.0200517 532.790560
19420 19421 19422 1 121.3800518 83.010560
19420 19421 19423 1 120.0200517 532.790560
19422 19421 19423 1 121.3800518 83.010560
2097 19422 3877 1 109.50000 418.400000
2097 19422 3878 1 109.50000 418.400000
2097 19422 19421 1 103.70004 836.800000
3877 19422 3878 1 109.50000 418.400000
3877 19422 19421 1 103.70004 836.800000
3878 19422 19421 1 103.70004 836.800000
19421 19423 19424 1 119.8800511 375.723200
19421 19423 19425 1 120.0200517 532.790560
19424 19423 19425 1 119.8800511 375.723200
19423 19425 19426 1 119.8800511 375.723200
19423 19425 19427 1 120.0200517 532.790560
19426 19425 19427 1 119.8800511 375.723200
19425 19427 19428 1 119.8800511 375.723200
19425 19427 19429 1 120.0200517 532.790560
19428 19427 19429 1 119.8800511 375.723200
19420 19429 19427 1 120.0200517 532.790560
19420 19429 19430 1 119.8800511 375.723200
19427 19429 19430 1 119.8800511 375.723200
19431 19432 19433 1 119.8800511 375.723200
19431 19432 19441 1 119.8800511 375.723200
19433 19432 19441 1 120.0200517 532.790560
19432 19433 19434 1 121.3800518 83.010560
19432 19433 19435 1 120.0200517 532.790560
19434 19433 19435 1 121.3800518 83.010560
3879 19434 3880 1 109.50000 418.400000
3879 19434 3881 1 109.50000 418.400000
3879 19434 19433 1 103.70004 836.800000
3880 19434 3881 1 109.50000 418.400000
3880 19434 19433 1 103.70004 836.800000
3881 19434 19433 1 103.70004 836.800000
19433 19435 19436 1 119.8800511 375.723200
19433 19435 19437 1 120.0200517 532.790560
19436 19435 19437 1 119.8800511 375.723200
19435 19437 19438 1 119.8800511 375.723200
19435 19437 19439 1 120.0200517 532.790560
19438 19437 19439 1 119.8800511 375.723200
19437 19439 19440 1 119.8800511 375.723200
19437 19439 19441 1 120.0200517 532.790560
19440 19439 19441 1 119.8800511 375.723200
19432 19441 19439 1 120.0200517 532.790560
19432 19441 19442 1 119.8800511 375.723200
19439 19441 19442 1 119.8800511 375.723200
19443 19444 19445 1 119.8800511 375.723200
19443 19444 19453 1 119.8800511 375.723200
19445 19444 19453 1 120.0200517 532.790560
19444 19445 19446 1 121.3800518 83.010560
19444 19445 19447 1 120.0200517 532.790560
19446 19445 19447 1 121.3800518 83.010560
1929 19446 3929 1 109.50000 418.400000
1929 19446 3930 1 109.50000 418.400000
1929 19446 19445 1 103.70004 836.800000
3929 19446 3930 1 109.50000 418.400000
3929 19446 19445 1 103.70004 836.800000
3930 19446 19445 1 103.70004 836.800000
19445 19447 19448 1 119.8800511 375.723200
19445 19447 19449 1 120.0200517 532.790560
19448 19447 19449 1 119.8800511 375.723200
19447 19449 19450 1 119.8800511 375.723200
19447 19449 19451 1 120.0200517 532.790560
19450 19449 19451 1 119.8800511 375.723200
19449 19451 19452 1 119.8800511 375.723200
19449 19451 19453 1 120.0200517 532.790560
19452 19451 19453 1 119.8800511 375.723200
19444 19453 19451 1 120.0200517 532.790560
19444 19453 19454 1 119.8800511 375.723200
19451 19453 19454 1 119.8800511 375.723200
19455 19456 19457 1 119.8800511 375.723200
19455 19456 19465 1 119.8800511 375.723200
19457 19456 19465 1 120.0200517 532.790560
19456 19457 19458 1 121.3800518 83.010560
19456 19457 19459 1 120.0200517 532.790560
19458 19457 19459 1 121.3800518 83.010560
986 19458 3936 1 109.50000 418.400000
986 19458 11198 1 109.50000 418.400000
986 19458 19457 1 103.70004 836.800000
3936 19458 11198 1 109.50000 418.400000
3936 19458 19457 1 103.70004 836.800000
11198 19458 19457 1 103.70004 836.800000
19457 19459 19460 1 119.8800511 375.723200
19457 19459 19461 1 120.0200517 532.790560
19460 19459 19461 1 119.8800511 375.723200
19459 19461 19462 1 119.8800511 375.723200
19459 19461 19463 1 120.0200517 532.790560
19462 19461 19463 1 119.8800511 375.723200
19461 19463 19464 1 119.8800511 375.723200
19461 19463 19465 1 120.0200517 532.790560
19464 19463 19465 1 119.8800511 375.723200
19456 19465 19463 1 120.0200517 532.790560
19456 19465 19466 1 119.8800511 375.723200
19463 19465 19466 1 119.8800511 375.723200
19467 19468 19469 1 119.8800511 375.723200
19467 19468 19477 1 119.8800511 375.723200
19469 19468 19477 1 120.0200517 532.790560
19468 19469 19470 1 121.3800518 83.010560
19468 19469 19471 1 120.0200517 532.790560
19470 19469 19471 1 121.3800518 83.010560
1689 19470 4017 1 109.50000 418.400000
1689 19470 4018 1 109.50000 418.400000
1689 19470 19469 1 103.70004 836.800000
4017 19470 4018 1 109.50000 418.400000
4017 19470 19469 1 103.70004 836.800000
4018 19470 19469 1 103.70004 836.800000
19469 19471 19472 1 119.8800511 375.723200
19469 19471 19473 1 120.0200517 532.790560
19472 19471 19473 1 119.8800511 375.723200
19471 19473 19474 1 119.8800511 375.723200
19471 19473 19475 1 120.0200517 532.790560
19474 19473 19475 1 119.8800511 375.723200
19473 19475 19476 1 119.8800511 375.723200
19473 19475 19477 1 120.0200517 532.790560
19476 19475 19477 1 119.8800511 375.723200
19468 19477 19475 1 120.0200517 532.790560
19468 19477 19478 1 119.8800511 375.723200
19475 19477 19478 1 119.8800511 375.723200
19479 19480 19481 1 119.8800511 375.723200
19479 19480 19489 1 119.8800511 375.723200
19481 19480 19489 1 120.0200517 532.790560
19480 19481 19482 1 121.3800518 83.010560
19480 19481 19483 1 120.0200517 532.790560
19482 19481 19483 1 121.3800518 83.010560
718 19482 4028 1 109.50000 418.400000
718 19482 4029 1 109.50000 418.400000
718 19482 19481 1 103.70004 836.800000
4028 19482 4029 1 109.50000 418.400000
4028 19482 19481 1 103.70004 836.800000
4029 19482 19481 1 103.70004 836.800000
19481 19483 19484 1 119.8800511 375.723200
19481 19483 19485 1 120.0200517 532.790560
19484 19483 19485 1 119.8800511 375.723200
19483 19485 19486 1 119.8800511 375.723200
19483 19485 19487 1 120.0200517 532.790560
19486 19485 19487 1 119.8800511 375.723200
19485 19487 19488 1 119.8800511 375.723200
19485 19487 19489 1 120.0200517 532.790560
19488 19487 19489 1 119.8800511 375.723200
19480 19489 19487 1 120.0200517 532.790560
19480 19489 19490 1 119.8800511 375.723200
19487 19489 19490 1 119.8800511 375.723200
19491 19492 19493 1 119.8800511 375.723200
19491 19492 19501 1 119.8800511 375.723200
19493 19492 19501 1 120.0200517 532.790560
19492 19493 19494 1 121.3800518 83.010560
19492 19493 19495 1 120.0200517 532.790560
19494 19493 19495 1 121.3800518 83.010560
840 19494 4033 1 109.50000 418.400000
840 19494 4034 1 109.50000 418.400000
840 19494 19493 1 103.70004 836.800000
4033 19494 4034 1 109.50000 418.400000
4033 19494 19493 1 103.70004 836.800000
4034 19494 19493 1 103.70004 836.800000
19493 19495 19496 1 119.8800511 375.723200
19493 19495 19497 1 120.0200517 532.790560
19496 19495 19497 1 119.8800511 375.723200
19495 19497 19498 1 119.8800511 375.723200
19495 19497 19499 1 120.0200517 532.790560
19498 19497 19499 1 119.8800511 375.723200
19497 19499 19500 1 119.8800511 375.723200
19497 19499 19501 1 120.0200517 532.790560
19500 19499 19501 1 119.8800511 375.723200
19492 19501 19499 1 120.0200517 532.790560
19492 19501 19502 1 119.8800511 375.723200
19499 19501 19502 1 119.8800511 375.723200
19503 19504 19505 1 119.8800511 375.723200
19503 19504 19513 1 119.8800511 375.723200
19505 19504 19513 1 120.0200517 532.790560
19504 19505 19506 1 121.3800518 83.010560
19504 19505 19507 1 120.0200517 532.790560
19506 19505 19507 1 121.3800518 83.010560
168 19506 4102 1 109.50000 418.400000
168 19506 4103 1 109.50000 418.400000
168 19506 19505 1 103.70004 836.800000
4102 19506 4103 1 109.50000 418.400000
4102 19506 19505 1 103.70004 836.800000
4103 19506 19505 1 103.70004 836.800000
19505 19507 19508 1 119.8800511 375.723200
19505 19507 19509 1 120.0200517 532.790560
19508 19507 19509 1 119.8800511 375.723200
19507 19509 19510 1 119.8800511 375.723200
19507 19509 19511 1 120.0200517 532.790560
19510 19509 19511 1 119.8800511 375.723200
19509 19511 19512 1 119.8800511 375.723200
19509 19511 19513 1 120.0200517 532.790560
19512 19511 19513 1 119.8800511 375.723200
19504 19513 19511 1 120.0200517 532.790560
19504 19513 19514 1 119.8800511 375.723200
19511 19513 19514 1 119.8800511 375.723200
19515 19516 19517 1 119.8800511 375.723200
19515 19516 19525 1 119.8800511 375.723200
19517 19516 19525 1 120.0200517 532.790560
19516 19517 19518 1 121.3800518 83.010560
19516 19517 19519 1 120.0200517 532.790560
19518 19517 19519 1 121.3800518 83.010560
480 19518 3500 1 109.50000 418.400000
480 19518 4167 1 109.50000 418.400000
480 19518 19517 1 103.70004 836.800000
3500 19518 4167 1 109.50000 418.400000
3500 19518 19517 1 103.70004 836.800000
4167 19518 19517 1 103.70004 836.800000
19517 19519 19520 1 119.8800511 375.723200
19517 19519 19521 1 120.0200517 532.790560
19520 19519 19521 1 119.8800511 375.723200
19519 19521 19522 1 119.8800511 375.723200
19519 19521 19523 1 120.0200517 532.790560
19522 19521 19523 1 119.8800511 375.723200
19521 19523 19524 1 119.8800511 375.723200
19521 19523 19525 1 120.0200517 532.790560
19524 19523 19525 1 119.8800511 375.723200
19516 19525 19523 1 120.0200517 532.790560
19516 19525 19526 1 119.8800511 375.723200
19523 19525 19526 1 119.8800511 375.723200
19527 19528 19529 1 119.8800511 375.723200
19527 19528 19537 1 119.8800511 375.723200
19529 19528 19537 1 120.0200517 532.790560
19528 19529 19530 1 121.3800518 83.010560
19528 19529 19531 1 120.0200517 532.790560
19530 19529 19531 1 121.3800518 83.010560
2684 19530 4172 1 109.50000 418.400000
2684 19530 11199 1 109.50000 418.400000
2684 19530 19529 1 103.70004 836.800000
4172 19530 11199 1 109.50000 418.400000
4172 19530 19529 1 103.70004 836.800000
11199 19530 19529 1 103.70004 836.800000
19529 19531 19532 1 119.8800511 375.723200
19529 19531 19533 1 120.0200517 532.790560
19532 19531 19533 1 119.8800511 375.723200
19531 19533 19534 1 119.8800511 375.723200
19531 19533 19535 1 120.0200517 532.790560
19534 19533 19535 1 119.8800511 375.723200
19533 19535 19536 1 119.8800511 375.723200
19533 19535 19537 1 120.0200517 532.790560
19536 19535 19537 1 119.8800511 375.723200
19528 19537 19535 1 120.0200517 532.790560
19528 19537 19538 1 119.8800511 375.723200
19535 19537 19538 1 119.8800511 375.723200
19539 19540 19541 1 119.8800511 375.723200
19539 19540 19549 1 119.8800511 375.723200
19541 19540 19549 1 120.0200517 532.790560
19540 19541 19542 1 121.3800518 83.010560
19540 19541 19543 1 120.0200517 532.790560
19542 19541 19543 1 121.3800518 83.010560
4208 19542 4209 1 109.50000 418.400000
4208 19542 11200 1 109.50000 418.400000
4208 19542 19541 1 103.70004 836.800000
4209 19542 11200 1 109.50000 418.400000
4209 19542 19541 1 103.70004 836.800000
11200 19542 19541 1 103.70004 836.800000
19541 19543 19544 1 119.8800511 375.723200
19541 19543 19545 1 120.0200517 532.790560
19544 19543 19545 1 119.8800511 375.723200
19543 19545 19546 1 119.8800511 375.723200
19543 19545 19547 1 120.0200517 532.790560
19546 19545 19547 1 119.8800511 375.723200
19545 19547 19548 1 119.8800511 375.723200
19545 19547 19549 1 120.0200517 532.790560
19548 19547 19549 1 119.8800511 375.723200
19540 19549 19547 1 120.0200517 532.790560
19540 19549 19550 1 119.8800511 375.723200
19547 19549 19550 1 119.8800511 375.723200
19551 19552 19553 1 119.8800511 375.723200
19551 19552 19561 1 119.8800511 375.723200
19553 19552 19561 1 120.0200517 532.790560
19552 19553 19554 1 121.3800518 83.010560
19552 19553 19555 1 120.0200517 532.790560
19554 19553 19555 1 121.3800518 83.010560
4241 19554 4242 1 109.50000 418.400000
4241 19554 4243 1 109.50000 418.400000
4241 19554 19553 1 103.70004 836.800000
4242 19554 4243 1 109.50000 418.400000
4242 19554 19553 1 103.70004 836.800000
4243 19554 19553 1 103.70004 836.800000
19553 19555 19556 1 119.8800511 375.723200
19553 19555 19557 1 120.0200517 532.790560
19556 19555 19557 1 119.8800511 375.723200
19555 19557 19558 1 119.8800511 375.723200
19555 19557 19559 1 120.0200517 532.790560
19558 19557 19559 1 119.8800511 375.723200
19557 19559 19560 1 119.8800511 375.723200
19557 19559 19561 1 120.0200517 532.790560
19560 19559 19561 1 119.8800511 375.723200
19552 19561 19559 1 120.0200517 532.790560
19552 19561 19562 1 119.8800511 375.723200
19559 19561 19562 1 119.8800511 375.723200
19563 19564 19565 1 119.8800511 375.723200
19563 19564 19573 1 119.8800511 375.723200
19565 19564 19573 1 120.0200517 532.790560
19564 19565 19566 1 121.3800518 83.010560
19564 19565 19567 1 120.0200517 532.790560
19566 19565 19567 1 121.3800518 83.010560
4338 19566 4339 1 109.50000 418.400000
4338 19566 4340 1 109.50000 418.400000
4338 19566 19565 1 103.70004 836.800000
4339 19566 4340 1 109.50000 418.400000
4339 19566 19565 1 103.70004 836.800000
4340 19566 19565 1 103.70004 836.800000
19565 19567 19568 1 119.8800511 375.723200
19565 19567 19569 1 120.0200517 532.790560
19568 19567 19569 1 119.8800511 375.723200
19567 19569 19570 1 119.8800511 375.723200
19567 19569 19571 1 120.0200517 532.790560
19570 19569 19571 1 119.8800511 375.723200
19569 19571 19572 1 119.8800511 375.723200
19569 19571 19573 1 120.0200517 532.790560
19572 19571 19573 1 119.8800511 375.723200
19564 19573 19571 1 120.0200517 532.790560
19564 19573 19574 1 119.8800511 375.723200
19571 19573 19574 1 119.8800511 375.723200
19575 19576 19577 1 119.8800511 375.723200
19575 19576 19585 1 119.8800511 375.723200
19577 19576 19585 1 120.0200517 532.790560
19576 19577 19578 1 121.3800518 83.010560
19576 19577 19579 1 120.0200517 532.790560
19578 19577 19579 1 121.3800518 83.010560
4398 19578 4399 1 109.50000 418.400000
4398 19578 4400 1 109.50000 418.400000
4398 19578 19577 1 103.70004 836.800000
4399 19578 4400 1 109.50000 418.400000
4399 19578 19577 1 103.70004 836.800000
4400 19578 19577 1 103.70004 836.800000
19577 19579 19580 1 119.8800511 375.723200
19577 19579 19581 1 120.0200517 532.790560
19580 19579 19581 1 119.8800511 375.723200
19579 19581 19582 1 119.8800511 375.723200
19579 19581 19583 1 120.0200517 532.790560
19582 19581 19583 1 119.8800511 375.723200
19581 19583 19584 1 119.8800511 375.723200
19581 19583 19585 1 120.0200517 532.790560
19584 19583 19585 1 119.8800511 375.723200
19576 19585 19583 1 120.0200517 532.790560
19576 19585 19586 1 119.8800511 375.723200
19583 19585 19586 1 119.8800511 375.723200
19587 19588 19589 1 119.8800511 375.723200
19587 19588 19597 1 119.8800511 375.723200
19589 19588 19597 1 120.0200517 532.790560
19588 19589 19590 1 121.3800518 83.010560
19588 19589 19591 1 120.0200517 532.790560
19590 19589 19591 1 121.3800518 83.010560
4432 19590 4433 1 109.50000 418.400000
4432 19590 4434 1 109.50000 418.400000
4432 19590 19589 1 103.70004 836.800000
4433 19590 4434 1 109.50000 418.400000
4433 19590 19589 1 103.70004 836.800000
4434 19590 19589 1 103.70004 836.800000
19589 19591 19592 1 119.8800511 375.723200
19589 19591 19593 1 120.0200517 532.790560
19592 19591 19593 1 119.8800511 375.723200
19591 19593 19594 1 119.8800511 375.723200
19591 19593 19595 1 120.0200517 532.790560
19594 19593 19595 1 119.8800511 375.723200
19593 19595 19596 1 119.8800511 375.723200
19593 19595 19597 1 120.0200517 532.790560
19596 19595 19597 1 119.8800511 375.723200
19588 19597 19595 1 120.0200517 532.790560
19588 19597 19598 1 119.8800511 375.723200
19595 19597 19598 1 119.8800511 375.723200
19599 19600 19601 1 119.8800511 375.723200
19599 19600 19609 1 119.8800511 375.723200
19601 19600 19609 1 120.0200517 532.790560
19600 19601 19602 1 121.3800518 83.010560
19600 19601 19603 1 120.0200517 532.790560
19602 19601 19603 1 121.3800518 83.010560
4479 19602 4481 1 109.50000 418.400000
4479 19602 11204 1 109.50000 418.400000
4479 19602 19601 1 103.70004 836.800000
4481 19602 11204 1 109.50000 418.400000
4481 19602 19601 1 103.70004 836.800000
11204 19602 19601 1 103.70004 836.800000
19601 19603 19604 1 119.8800511 375.723200
19601 19603 19605 1 120.0200517 532.790560
19604 19603 19605 1 119.8800511 375.723200
19603 19605 19606 1 119.8800511 375.723200
19603 19605 19607 1 120.0200517 532.790560
19606 19605 19607 1 119.8800511 375.723200
19605 19607 19608 1 119.8800511 375.723200
19605 19607 19609 1 120.0200517 532.790560
19608 19607 19609 1 119.8800511 375.723200
19600 19609 19607 1 120.0200517 532.790560
19600 19609 19610 1 119.8800511 375.723200
19607 19609 19610 1 119.8800511 375.723200
19611 19612 19613 1 119.8800511 375.723200
19611 19612 19621 1 119.8800511 375.723200
19613 19612 19621 1 120.0200517 532.790560
19612 19613 19614 1 121.3800518 83.010560
19612 19613 19615 1 120.0200517 532.790560
19614 19613 19615 1 121.3800518 83.010560
3303 19614 3365 1 109.50000 418.400000
3303 19614 11205 1 109.50000 418.400000
3303 19614 19613 1 103.70004 836.800000
3365 19614 11205 1 109.50000 418.400000
3365 19614 19613 1 103.70004 836.800000
11205 19614 19613 1 103.70004 836.800000
19613 19615 19616 1 119.8800511 375.723200
19613 19615 19617 1 120.0200517 532.790560
19616 19615 19617 1 119.8800511 375.723200
19615 19617 19618 1 119.8800511 375.723200
19615 19617 19619 1 120.0200517 532.790560
19618 19617 19619 1 119.8800511 375.723200
19617 19619 19620 1 119.8800511 375.723200
19617 19619 19621 1 120.0200517 532.790560
19620 19619 19621 1 119.8800511 375.723200
19612 19621 19619 1 120.0200517 532.790560
19612 19621 19622 1 119.8800511 375.723200
19619 19621 19622 1 119.8800511 375.723200
19623 19624 19625 1 119.8800511 375.723200
19623 19624 19633 1 119.8800511 375.723200
19625 19624 19633 1 120.0200517 532.790560
19624 19625 19626 1 121.3800518 83.010560
19624 19625 19627 1 120.0200517 532.790560
19626 19625 19627 1 121.3800518 83.010560
4509 19626 4510 1 109.50000 418.400000
4509 19626 11206 1 109.50000 418.400000
4509 19626 19625 1 103.70004 836.800000
4510 19626 11206 1 109.50000 418.400000
4510 19626 19625 1 103.70004 836.800000
11206 19626 19625 1 103.70004 836.800000
19625 19627 19628 1 119.8800511 375.723200
19625 19627 19629 1 120.0200517 532.790560
19628 19627 19629 1 119.8800511 375.723200
19627 19629 19630 1 119.8800511 375.723200
19627 19629 19631 1 120.0200517 532.790560
19630 19629 19631 1 119.8800511 375.723200
19629 19631 19632 1 119.8800511 375.723200
19629 19631 19633 1 120.0200517 532.790560
19632 19631 19633 1 119.8800511 375.723200
19624 19633 19631 1 120.0200517 532.790560
19624 19633 19634 1 119.8800511 375.723200
19631 19633 19634 1 119.8800511 375.723200
19635 19636 19637 1 119.8800511 375.723200
19635 19636 19645 1 119.8800511 375.723200
19637 19636 19645 1 120.0200517 532.790560
19636 19637 19638 1 121.3800518 83.010560
19636 19637 19639 1 120.0200517 532.790560
19638 19637 19639 1 121.3800518 83.010560
4511 19638 4512 1 109.50000 418.400000
4511 19638 4513 1 109.50000 418.400000
4511 19638 19637 1 103.70004 836.800000
4512 19638 4513 1 109.50000 418.400000
4512 19638 19637 1 103.70004 836.800000
4513 19638 19637 1 103.70004 836.800000
19637 19639 19640 1 119.8800511 375.723200
19637 19639 19641 1 120.0200517 532.790560
19640 19639 19641 1 119.8800511 375.723200
19639 19641 19642 1 119.8800511 375.723200
19639 19641 19643 1 120.0200517 532.790560
19642 19641 19643 1 119.8800511 375.723200
19641 19643 19644 1 119.8800511 375.723200
19641 19643 19645 1 120.0200517 532.790560
19644 19643 19645 1 119.8800511 375.723200
19636 19645 19643 1 120.0200517 532.790560
19636 19645 19646 1 119.8800511 375.723200
19643 19645 19646 1 119.8800511 375.723200
19647 19648 19649 1 119.8800511 375.723200
19647 19648 19657 1 119.8800511 375.723200
19649 19648 19657 1 120.0200517 532.790560
19648 19649 19650 1 121.3800518 83.010560
19648 19649 19651 1 120.0200517 532.790560
19650 19649 19651 1 121.3800518 83.010560
4515 19650 4516 1 109.50000 418.400000
4515 19650 4517 1 109.50000 418.400000
4515 19650 19649 1 103.70004 836.800000
4516 19650 4517 1 109.50000 418.400000
4516 19650 19649 1 103.70004 836.800000
4517 19650 19649 1 103.70004 836.800000
19649 19651 19652 1 119.8800511 375.723200
19649 19651 19653 1 120.0200517 532.790560
19652 19651 19653 1 119.8800511 375.723200
19651 19653 19654 1 119.8800511 375.723200
19651 19653 19655 1 120.0200517 532.790560
19654 19653 19655 1 119.8800511 375.723200
19653 19655 19656 1 119.8800511 375.723200
19653 19655 19657 1 120.0200517 532.790560
19656 19655 19657 1 119.8800511 375.723200
19648 19657 19655 1 120.0200517 532.790560
19648 19657 19658 1 119.8800511 375.723200
19655 19657 19658 1 119.8800511 375.723200
19659 19660 19661 1 119.8800511 375.723200
19659 19660 19669 1 119.8800511 375.723200
19661 19660 19669 1 120.0200517 532.790560
19660 19661 19662 1 121.3800518 83.010560
19660 19661 19663 1 120.0200517 532.790560
19662 19661 19663 1 121.3800518 83.010560
4586 19662 4587 1 109.50000 418.400000
4586 19662 4588 1 109.50000 418.400000
4586 19662 19661 1 103.70004 836.800000
4587 19662 4588 1 109.50000 418.400000
4587 19662 19661 1 103.70004 836.800000
4588 19662 19661 1 103.70004 836.800000
19661 19663 19664 1 119.8800511 375.723200
19661 19663 19665 1 120.0200517 532.790560
19664 19663 19665 1 119.8800511 375.723200
19663 19665 19666 1 119.8800511 375.723200
19663 19665 19667 1 120.0200517 532.790560
19666 19665 19667 1 119.8800511 375.723200
19665 19667 19668 1 119.8800511 375.723200
19665 19667 19669 1 120.0200517 532.790560
19668 19667 19669 1 119.8800511 375.723200
19660 19669 19667 1 120.0200517 532.790560
19660 19669 19670 1 119.8800511 375.723200
19667 19669 19670 1 119.8800511 375.723200
19671 19672 19673 1 119.8800511 375.723200
19671 19672 19681 1 119.8800511 375.723200
19673 19672 19681 1 120.0200517 532.790560
19672 19673 19674 1 121.3800518 83.010560
19672 19673 19675 1 120.0200517 532.790560
19674 19673 19675 1 121.3800518 83.010560
3219 19674 4603 1 109.50000 418.400000
3219 19674 4604 1 109.50000 418.400000
3219 19674 19673 1 103.70004 836.800000
4603 19674 4604 1 109.50000 418.400000
4603 19674 19673 1 103.70004 836.800000
4604 19674 19673 1 103.70004 836.800000
19673 19675 19676 1 119.8800511 375.723200
19673 19675 19677 1 120.0200517 532.790560
19676 19675 19677 1 119.8800511 375.723200
19675 19677 19678 1 119.8800511 375.723200
19675 19677 19679 1 120.0200517 532.790560
19678 19677 19679 1 119.8800511 375.723200
19677 19679 19680 1 119.8800511 375.723200
19677 19679 19681 1 120.0200517 532.790560
19680 19679 19681 1 119.8800511 375.723200
19672 19681 19679 1 120.0200517 532.790560
19672 19681 19682 1 119.8800511 375.723200
19679 19681 19682 1 119.8800511 375.723200
19683 19684 19685 1 119.8800511 375.723200
19683 19684 19693 1 119.8800511 375.723200
19685 19684 19693 1 120.0200517 532.790560
19684 19685 19686 1 121.3800518 83.010560
19684 19685 19687 1 120.0200517 532.790560
19686 19685 19687 1 121.3800518 83.010560
4418 19686 4623 1 109.50000 418.400000
4418 19686 4624 1 109.50000 418.400000
4418 19686 19685 1 103.70004 836.800000
4623 19686 4624 1 109.50000 418.400000
4623 19686 19685 1 103.70004 836.800000
4624 19686 19685 1 103.70004 836.800000
19685 19687 19688 1 119.8800511 375.723200
19685 19687 19689 1 120.0200517 532.790560
19688 19687 19689 1 119.8800511 375.723200
19687 19689 19690 1 119.8800511 375.723200
19687 19689 19691 1 120.0200517 532.790560
19690 19689 19691 1 119.8800511 375.723200
19689 19691 19692 1 119.8800511 375.723200
19689 19691 19693 1 120.0200517 532.790560
19692 19691 19693 1 119.8800511 375.723200
19684 19693 19691 1 120.0200517 532.790560
19684 19693 19694 1 119.8800511 375.723200
19691 19693 19694 1 119.8800511 375.723200
19695 19696 19697 1 119.8800511 375.723200
19695 19696 19705 1 119.8800511 375.723200
19697 19696 19705 1 120.0200517 532.790560
19696 19697 19698 1 121.3800518 83.010560
19696 19697 19699 1 120.0200517 532.790560
19698 19697 19699 1 121.3800518 83.010560
4636 19698 4637 1 109.50000 418.400000
4636 19698 4638 1 109.50000 418.400000
4636 19698 19697 1 103.70004 836.800000
4637 19698 4638 1 109.50000 418.400000
4637 19698 19697 1 103.70004 836.800000
4638 19698 19697 1 103.70004 836.800000
19697 19699 19700 1 119.8800511 375.723200
19697 19699 19701 1 120.0200517 532.790560
19700 19699 19701 1 119.8800511 375.723200
19699 19701 19702 1 119.8800511 375.723200
19699 19701 19703 1 120.0200517 532.790560
19702 19701 19703 1 119.8800511 375.723200
19701 19703 19704 1 119.8800511 375.723200
19701 19703 19705 1 120.0200517 532.790560
19704 19703 19705 1 119.8800511 375.723200
19696 19705 19703 1 120.0200517 532.790560
19696 19705 19706 1 119.8800511 375.723200
19703 19705 19706 1 119.8800511 375.723200
19707 19708 19709 1 119.8800511 375.723200
19707 19708 19717 1 119.8800511 375.723200
19709 19708 19717 1 120.0200517 532.790560
19708 19709 19710 1 121.3800518 83.010560
19708 19709 19711 1 120.0200517 532.790560
19710 19709 19711 1 121.3800518 83.010560
4691 19710 4692 1 109.50000 418.400000
4691 19710 4693 1 109.50000 418.400000
4691 19710 19709 1 103.70004 836.800000
4692 19710 4693 1 109.50000 418.400000
4692 19710 19709 1 103.70004 836.800000
4693 19710 19709 1 103.70004 836.800000
19709 19711 19712 1 119.8800511 375.723200
19709 19711 19713 1 120.0200517 532.790560
19712 19711 19713 1 119.8800511 375.723200
19711 19713 19714 1 119.8800511 375.723200
19711 19713 19715 1 120.0200517 532.790560
19714 19713 19715 1 119.8800511 375.723200
19713 19715 19716 1 119.8800511 375.723200
19713 19715 19717 1 120.0200517 532.790560
19716 19715 19717 1 119.8800511 375.723200
19708 19717 19715 1 120.0200517 532.790560
19708 19717 19718 1 119.8800511 375.723200
19715 19717 19718 1 119.8800511 375.723200
19719 19720 19721 1 119.8800511 375.723200
19719 19720 19729 1 119.8800511 375.723200
19721 19720 19729 1 120.0200517 532.790560
19720 19721 19722 1 121.3800518 83.010560
19720 19721 19723 1 120.0200517 532.790560
19722 19721 19723 1 121.3800518 83.010560
4648 19722 4700 1 109.50000 418.400000
4648 19722 4701 1 109.50000 418.400000
4648 19722 19721 1 103.70004 836.800000
4700 19722 4701 1 109.50000 418.400000
4700 19722 19721 1 103.70004 836.800000
4701 19722 19721 1 103.70004 836.800000
19721 19723 19724 1 119.8800511 375.723200
19721 19723 19725 1 120.0200517 532.790560
19724 19723 19725 1 119.8800511 375.723200
19723 19725 19726 1 119.8800511 375.723200
19723 19725 19727 1 120.0200517 532.790560
19726 19725 19727 1 119.8800511 375.723200
19725 19727 19728 1 119.8800511 375.723200
19725 19727 19729 1 120.0200517 532.790560
19728 19727 19729 1 119.8800511 375.723200
19720 19729 19727 1 120.0200517 532.790560
19720 19729 19730 1 119.8800511 375.723200
19727 19729 19730 1 119.8800511 375.723200
19731 19732 19733 1 119.8800511 375.723200
19731 19732 19741 1 119.8800511 375.723200
19733 19732 19741 1 120.0200517 532.790560
19732 19733 19734 1 121.3800518 83.010560
19732 19733 19735 1 120.0200517 532.790560
19734 19733 19735 1 121.3800518 83.010560
519 19734 4736 1 109.50000 418.400000
519 19734 4737 1 109.50000 418.400000
519 19734 19733 1 103.70004 836.800000
4736 19734 4737 1 109.50000 418.400000
4736 19734 19733 1 103.70004 836.800000
4737 19734 19733 1 103.70004 836.800000
19733 19735 19736 1 119.8800511 375.723200
19733 19735 19737 1 120.0200517 532.790560
19736 19735 19737 1 119.8800511 375.723200
19735 19737 19738 1 119.8800511 375.723200
19735 19737 19739 1 120.0200517 532.790560
19738 19737 19739 1 119.8800511 375.723200
19737 19739 19740 1 119.8800511 375.723200
19737 19739 19741 1 120.0200517 532.790560
19740 19739 19741 1 119.8800511 375.723200
19732 19741 19739 1 120.0200517 532.790560
19732 19741 19742 1 119.8800511 375.723200
19739 19741 19742 1 119.8800511 375.723200
19743 19744 19745 1 119.8800511 375.723200
19743 19744 19753 1 119.8800511 375.723200
19745 19744 19753 1 120.0200517 532.790560
19744 19745 19746 1 121.3800518 83.010560
19744 19745 19747 1 120.0200517 532.790560
19746 19745 19747 1 121.3800518 83.010560
4771 19746 4772 1 109.50000 418.400000
4771 19746 11209 1 109.50000 418.400000
4771 19746 19745 1 103.70004 836.800000
4772 19746 11209 1 109.50000 418.400000
4772 19746 19745 1 103.70004 836.800000
11209 19746 19745 1 103.70004 836.800000
19745 19747 19748 1 119.8800511 375.723200
19745 19747 19749 1 120.0200517 532.790560
19748 19747 19749 1 119.8800511 375.723200
19747 19749 19750 1 119.8800511 375.723200
19747 19749 19751 1 120.0200517 532.790560
19750 19749 19751 1 119.8800511 375.723200
19749 19751 19752 1 119.8800511 375.723200
19749 19751 19753 1 120.0200517 532.790560
19752 19751 19753 1 119.8800511 375.723200
19744 19753 19751 1 120.0200517 532.790560
19744 19753 19754 1 119.8800511 375.723200
19751 19753 19754 1 119.8800511 375.723200
19755 19756 19757 1 119.8800511 375.723200
19755 19756 19765 1 119.8800511 375.723200
19757 19756 19765 1 120.0200517 532.790560
19756 19757 19758 1 121.3800518 83.010560
19756 19757 19759 1 120.0200517 532.790560
19758 19757 19759 1 121.3800518 83.010560
837 19758 4795 1 109.50000 418.400000
837 19758 11210 1 109.50000 418.400000
837 19758 19757 1 103.70004 836.800000
4795 19758 11210 1 109.50000 418.400000
4795 19758 19757 1 103.70004 836.800000
11210 19758 19757 1 103.70004 836.800000
19757 19759 19760 1 119.8800511 375.723200
19757 19759 19761 1 120.0200517 532.790560
19760 19759 19761 1 119.8800511 375.723200
19759 19761 19762 1 119.8800511 375.723200
19759 19761 19763 1 120.0200517 532.790560
19762 19761 19763 1 119.8800511 375.723200
19761 19763 19764 1 119.8800511 375.723200
19761 19763 19765 1 120.0200517 532.790560
19764 19763 19765 1 119.8800511 375.723200
19756 19765 19763 1 120.0200517 532.790560
19756 19765 19766 1 119.8800511 375.723200
19763 19765 19766 1 119.8800511 375.723200
19767 19768 19769 1 119.8800511 375.723200
19767 19768 19777 1 119.8800511 375.723200
19769 19768 19777 1 120.0200517 532.790560
19768 19769 19770 1 121.3800518 83.010560
19768 19769 19771 1 120.0200517 532.790560
19770 19769 19771 1 121.3800518 83.010560
4807 19770 4808 1 109.50000 418.400000
4807 19770 4809 1 109.50000 418.400000
4807 19770 19769 1 103.70004 836.800000
4808 19770 4809 1 109.50000 418.400000
4808 19770 19769 1 103.70004 836.800000
4809 19770 19769 1 103.70004 836.800000
19769 19771 19772 1 119.8800511 375.723200
19769 19771 19773 1 120.0200517 532.790560
19772 19771 19773 1 119.8800511 375.723200
19771 19773 19774 1 119.8800511 375.723200
19771 19773 19775 1 120.0200517 532.790560
19774 19773 19775 1 119.8800511 375.723200
19773 19775 19776 1 119.8800511 375.723200
19773 19775 19777 1 120.0200517 532.790560
19776 19775 19777 1 119.8800511 375.723200
19768 19777 19775 1 120.0200517 532.790560
19768 19777 19778 1 119.8800511 375.723200
19775 19777 19778 1 119.8800511 375.723200
19779 19780 19781 1 119.8800511 375.723200
19779 19780 19789 1 119.8800511 375.723200
19781 19780 19789 1 120.0200517 532.790560
19780 19781 19782 1 121.3800518 83.010560
19780 19781 19783 1 120.0200517 532.790560
19782 19781 19783 1 121.3800518 83.010560
274 19782 4813 1 109.50000 418.400000
274 19782 4814 1 109.50000 418.400000
274 19782 19781 1 103.70004 836.800000
4813 19782 4814 1 109.50000 418.400000
4813 19782 19781 1 103.70004 836.800000
4814 19782 19781 1 103.70004 836.800000
19781 19783 19784 1 119.8800511 375.723200
19781 19783 19785 1 120.0200517 532.790560
19784 19783 19785 1 119.8800511 375.723200
19783 19785 19786 1 119.8800511 375.723200
19783 19785 19787 1 120.0200517 532.790560
19786 19785 19787 1 119.8800511 375.723200
19785 19787 19788 1 119.8800511 375.723200
19785 19787 19789 1 120.0200517 532.790560
19788 19787 19789 1 119.8800511 375.723200
19780 19789 19787 1 120.0200517 532.790560
19780 19789 19790 1 119.8800511 375.723200
19787 19789 19790 1 119.8800511 375.723200
19791 19792 19793 1 119.8800511 375.723200
19791 19792 19801 1 119.8800511 375.723200
19793 19792 19801 1 120.0200517 532.790560
19792 19793 19794 1 121.3800518 83.010560
19792 19793 19795 1 120.0200517 532.790560
19794 19793 19795 1 121.3800518 83.010560
4032 19794 4817 1 109.50000 418.400000
4032 19794 11212 1 109.50000 418.400000
4032 19794 19793 1 103.70004 836.800000
4817 19794 11212 1 109.50000 418.400000
4817 19794 19793 1 103.70004 836.800000
11212 19794 19793 1 103.70004 836.800000
19793 19795 19796 1 119.8800511 375.723200
19793 19795 19797 1 120.0200517 532.790560
19796 19795 19797 1 119.8800511 375.723200
19795 19797 19798 1 119.8800511 375.723200
19795 19797 19799 1 120.0200517 532.790560
19798 19797 19799 1 119.8800511 375.723200
19797 19799 19800 1 119.8800511 375.723200
19797 19799 19801 1 120.0200517 532.790560
19800 19799 19801 1 119.8800511 375.723200
19792 19801 19799 1 120.0200517 532.790560
19792 19801 19802 1 119.8800511 375.723200
19799 19801 19802 1 119.8800511 375.723200
19803 19804 19805 1 119.8800511 375.723200
19803 19804 19813 1 119.8800511 375.723200
19805 19804 19813 1 120.0200517 532.790560
19804 19805 19806 1 121.3800518 83.010560
19804 19805 19807 1 120.0200517 532.790560
19806 19805 19807 1 121.3800518 83.010560
2324 19806 3904 1 109.50000 418.400000
2324 19806 4792 1 109.50000 418.400000
2324 19806 19805 1 103.70004 836.800000
3904 19806 4792 1 109.50000 418.400000
3904 19806 19805 1 103.70004 836.800000
4792 19806 19805 1 103.70004 836.800000
19805 19807 19808 1 119.8800511 375.723200
19805 19807 19809 1 120.0200517 532.790560
19808 19807 19809 1 119.8800511 375.723200
19807 19809 19810 1 119.8800511 375.723200
19807 19809 19811 1 120.0200517 532.790560
19810 19809 19811 1 119.8800511 375.723200
19809 19811 19812 1 119.8800511 375.723200
19809 19811 19813 1 120.0200517 532.790560
19812 19811 19813 1 119.8800511 375.723200
19804 19813 19811 1 120.0200517 532.790560
19804 19813 19814 1 119.8800511 375.723200
19811 19813 19814 1 119.8800511 375.723200
19815 19816 19817 1 119.8800511 375.723200
19815 19816 19825 1 119.8800511 375.723200
19817 19816 19825 1 120.0200517 532.790560
19816 19817 19818 1 121.3800518 83.010560
19816 19817 19819 1 120.0200517 532.790560
19818 19817 19819 1 121.3800518 83.010560
4861 19818 4862 1 109.50000 418.400000
4861 19818 11214 1 109.50000 418.400000
4861 19818 19817 1 103.70004 836.800000
4862 19818 11214 1 109.50000 418.400000
4862 19818 19817 1 103.70004 836.800000
11214 19818 19817 1 103.70004 836.800000
19817 19819 19820 1 119.8800511 375.723200
19817 19819 19821 1 120.0200517 532.790560
19820 19819 19821 1 119.8800511 375.723200
19819 19821 19822 1 119.8800511 375.723200
19819 19821 19823 1 120.0200517 532.790560
19822 19821 19823 1 119.8800511 375.723200
19821 19823 19824 1 119.8800511 375.723200
19821 19823 19825 1 120.0200517 532.790560
19824 19823 19825 1 119.8800511 375.723200
19816 19825 19823 1 120.0200517 532.790560
19816 19825 19826 1 119.8800511 375.723200
19823 19825 19826 1 119.8800511 375.723200
19827 19828 19829 1 119.8800511 375.723200
19827 19828 19837 1 119.8800511 375.723200
19829 19828 19837 1 120.0200517 532.790560
19828 19829 19830 1 121.3800518 83.010560
19828 19829 19831 1 120.0200517 532.790560
19830 19829 19831 1 121.3800518 83.010560
523 19830 889 1 109.50000 418.400000
523 19830 4879 1 109.50000 418.400000
523 19830 19829 1 103.70004 836.800000
889 19830 4879 1 109.50000 418.400000
889 19830 19829 1 103.70004 836.800000
4879 19830 19829 1 103.70004 836.800000
19829 19831 19832 1 119.8800511 375.723200
19829 19831 19833 1 120.0200517 532.790560
19832 19831 19833 1 119.8800511 375.723200
19831 19833 19834 1 119.8800511 375.723200
19831 19833 19835 1 120.0200517 532.790560
19834 19833 19835 1 119.8800511 375.723200
19833 19835 19836 1 119.8800511 375.723200
19833 19835 19837 1 120.0200517 532.790560
19836 19835 19837 1 119.8800511 375.723200
19828 19837 19835 1 120.0200517 532.790560
19828 19837 19838 1 119.8800511 375.723200
19835 19837 19838 1 119.8800511 375.723200
19839 19840 19841 1 119.8800511 375.723200
19839 19840 19849 1 119.8800511 375.723200
19841 19840 19849 1 120.0200517 532.790560
19840 19841 19842 1 121.3800518 83.010560
19840 19841 19843 1 120.0200517 532.790560
19842 19841 19843 1 121.3800518 83.010560
460 19842 4886 1 109.50000 418.400000
460 19842 11216 1 109.50000 418.400000
460 19842 19841 1 103.70004 836.800000
4886 19842 11216 1 109.50000 418.400000
4886 19842 19841 1 103.70004 836.800000
11216 19842 19841 1 103.70004 836.800000
19841 19843 19844 1 119.8800511 375.723200
19841 19843 19845 1 120.0200517 532.790560
19844 19843 19845 1 119.8800511 375.723200
19843 19845 19846 1 119.8800511 375.723200
19843 19845 19847 1 120.0200517 532.790560
19846 19845 19847 1 119.8800511 375.723200
19845 19847 19848 1 119.8800511 375.723200
19845 19847 19849 1 120.0200517 532.790560
19848 19847 19849 1 119.8800511 375.723200
19840 19849 19847 1 120.0200517 532.790560
19840 19849 19850 1 119.8800511 375.723200
19847 19849 19850 1 119.8800511 375.723200
19851 19852 19853 1 119.8800511 375.723200
19851 19852 19861 1 119.8800511 375.723200
19853 19852 19861 1 120.0200517 532.790560
19852 19853 19854 1 121.3800518 83.010560
19852 19853 19855 1 120.0200517 532.790560
19854 19853 19855 1 121.3800518 83.010560
2517 19854 4894 1 109.50000 418.400000
2517 19854 11217 1 109.50000 418.400000
2517 19854 19853 1 103.70004 836.800000
4894 19854 11217 1 109.50000 418.400000
4894 19854 19853 1 103.70004 836.800000
11217 19854 19853 1 103.70004 836.800000
19853 19855 19856 1 119.8800511 375.723200
19853 19855 19857 1 120.0200517 532.790560
19856 19855 19857 1 119.8800511 375.723200
19855 19857 19858 1 119.8800511 375.723200
19855 19857 19859 1 120.0200517 532.790560
19858 19857 19859 1 119.8800511 375.723200
19857 19859 19860 1 119.8800511 375.723200
19857 19859 19861 1 120.0200517 532.790560
19860 19859 19861 1 119.8800511 375.723200
19852 19861 19859 1 120.0200517 532.790560
19852 19861 19862 1 119.8800511 375.723200
19859 19861 19862 1 119.8800511 375.723200
19863 19864 19865 1 119.8800511 375.723200
19863 19864 19873 1 119.8800511 375.723200
19865 19864 19873 1 120.0200517 532.790560
19864 19865 19866 1 121.3800518 83.010560
19864 19865 19867 1 120.0200517 532.790560
19866 19865 19867 1 121.3800518 83.010560
4895 19866 4896 1 109.50000 418.400000
4895 19866 11218 1 109.50000 418.400000
4895 19866 19865 1 103.70004 836.800000
4896 19866 11218 1 109.50000 418.400000
4896 19866 19865 1 103.70004 836.800000
11218 19866 19865 1 103.70004 836.800000
19865 19867 19868 1 119.8800511 375.723200
19865 19867 19869 1 120.0200517 532.790560
19868 19867 19869 1 119.8800511 375.723200
19867 19869 19870 1 119.8800511 375.723200
19867 19869 19871 1 120.0200517 532.790560
19870 19869 19871 1 119.8800511 375.723200
19869 19871 19872 1 119.8800511 375.723200
19869 19871 19873 1 120.0200517 532.790560
19872 19871 19873 1 119.8800511 375.723200
19864 19873 19871 1 120.0200517 532.790560
19864 19873 19874 1 119.8800511 375.723200
19871 19873 19874 1 119.8800511 375.723200
19875 19876 19877 1 119.8800511 375.723200
19875 19876 19885 1 119.8800511 375.723200
19877 19876 19885 1 120.0200517 532.790560
19876 19877 19878 1 121.3800518 83.010560
19876 19877 19879 1 120.0200517 532.790560
19878 19877 19879 1 121.3800518 83.010560
2297 19878 2633 1 109.50000 418.400000
2297 19878 4932 1 109.50000 418.400000
2297 19878 19877 1 103.70004 836.800000
2633 19878 4932 1 109.50000 418.400000
2633 19878 19877 1 103.70004 836.800000
4932 19878 19877 1 103.70004 836.800000
19877 19879 19880 1 119.8800511 375.723200
19877 19879 19881 1 120.0200517 532.790560
19880 19879 19881 1 119.8800511 375.723200
19879 19881 19882 1 119.8800511 375.723200
19879 19881 19883 1 120.0200517 532.790560
19882 19881 19883 1 119.8800511 375.723200
19881 19883 19884 1 119.8800511 375.723200
19881 19883 19885 1 120.0200517 532.790560
19884 19883 19885 1 119.8800511 375.723200
19876 19885 19883 1 120.0200517 532.790560
19876 19885 19886 1 119.8800511 375.723200
19883 19885 19886 1 119.8800511 375.723200
19887 19888 19889 1 119.8800511 375.723200
19887 19888 19897 1 119.8800511 375.723200
19889 19888 19897 1 120.0200517 532.790560
19888 19889 19890 1 121.3800518 83.010560
19888 19889 19891 1 120.0200517 532.790560
19890 19889 19891 1 121.3800518 83.010560
4938 19890 4939 1 109.50000 418.400000
4938 19890 10105 1 109.50000 418.400000
4938 19890 19889 1 103.70004 836.800000
4939 19890 10105 1 109.50000 418.400000
4939 19890 19889 1 103.70004 836.800000
10105 19890 19889 1 103.70004 836.800000
19889 19891 19892 1 119.8800511 375.723200
19889 19891 19893 1 120.0200517 532.790560
19892 19891 19893 1 119.8800511 375.723200
19891 19893 19894 1 119.8800511 375.723200
19891 19893 19895 1 120.0200517 532.790560
19894 19893 19895 1 119.8800511 375.723200
19893 19895 19896 1 119.8800511 375.723200
19893 19895 19897 1 120.0200517 532.790560
19896 19895 19897 1 119.8800511 375.723200
19888 19897 19895 1 120.0200517 532.790560
19888 19897 19898 1 119.8800511 375.723200
19895 19897 19898 1 119.8800511 375.723200
19899 19900 19901 1 119.8800511 375.723200
19899 19900 19909 1 119.8800511 375.723200
19901 19900 19909 1 120.0200517 532.790560
19900 19901 19902 1 121.3800518 83.010560
19900 19901 19903 1 120.0200517 532.790560
19902 19901 19903 1 121.3800518 83.010560
4454 19902 4961 1 109.50000 418.400000
4454 19902 11219 1 109.50000 418.400000
4454 19902 19901 1 103.70004 836.800000
4961 19902 11219 1 109.50000 418.400000
4961 19902 19901 1 103.70004 836.800000
11219 19902 19901 1 103.70004 836.800000
19901 19903 19904 1 119.8800511 375.723200
19901 19903 19905 1 120.0200517 532.790560
19904 19903 19905 1 119.8800511 375.723200
19903 19905 19906 1 119.8800511 375.723200
19903 19905 19907 1 120.0200517 532.790560
19906 19905 19907 1 119.8800511 375.723200
19905 19907 19908 1 119.8800511 375.723200
19905 19907 19909 1 120.0200517 532.790560
19908 19907 19909 1 119.8800511 375.723200
19900 19909 19907 1 120.0200517 532.790560
19900 19909 19910 1 119.8800511 375.723200
19907 19909 19910 1 119.8800511 375.723200
19911 19912 19913 1 119.8800511 375.723200
19911 19912 19921 1 119.8800511 375.723200
19913 19912 19921 1 120.0200517 532.790560
19912 19913 19914 1 121.3800518 83.010560
19912 19913 19915 1 120.0200517 532.790560
19914 19913 19915 1 121.3800518 83.010560
4981 19914 4982 1 109.50000 418.400000
4981 19914 11220 1 109.50000 418.400000
4981 19914 19913 1 103.70004 836.800000
4982 19914 11220 1 109.50000 418.400000
4982 19914 19913 1 103.70004 836.800000
11220 19914 19913 1 103.70004 836.800000
19913 19915 19916 1 119.8800511 375.723200
19913 19915 19917 1 120.0200517 532.790560
19916 19915 19917 1 119.8800511 375.723200
19915 19917 19918 1 119.8800511 375.723200
19915 19917 19919 1 120.0200517 532.790560
19918 19917 19919 1 119.8800511 375.723200
19917 19919 19920 1 119.8800511 375.723200
19917 19919 19921 1 120.0200517 532.790560
19920 19919 19921 1 119.8800511 375.723200
19912 19921 19919 1 120.0200517 532.790560
19912 19921 19922 1 119.8800511 375.723200
19919 19921 19922 1 119.8800511 375.723200
19923 19924 19925 1 119.8800511 375.723200
19923 19924 19933 1 119.8800511 375.723200
19925 19924 19933 1 120.0200517 532.790560
19924 19925 19926 1 121.3800518 83.010560
19924 19925 19927 1 120.0200517 532.790560
19926 19925 19927 1 121.3800518 83.010560
3627 19926 4990 1 109.50000 418.400000
3627 19926 4991 1 109.50000 418.400000
3627 19926 19925 1 103.70004 836.800000
4990 19926 4991 1 109.50000 418.400000
4990 19926 19925 1 103.70004 836.800000
4991 19926 19925 1 103.70004 836.800000
19925 19927 19928 1 119.8800511 375.723200
19925 19927 19929 1 120.0200517 532.790560
19928 19927 19929 1 119.8800511 375.723200
19927 19929 19930 1 119.8800511 375.723200
19927 19929 19931 1 120.0200517 532.790560
19930 19929 19931 1 119.8800511 375.723200
19929 19931 19932 1 119.8800511 375.723200
19929 19931 19933 1 120.0200517 532.790560
19932 19931 19933 1 119.8800511 375.723200
19924 19933 19931 1 120.0200517 532.790560
19924 19933 19934 1 119.8800511 375.723200
19931 19933 19934 1 119.8800511 375.723200
19935 19936 19937 1 119.8800511 375.723200
19935 19936 19945 1 119.8800511 375.723200
19937 19936 19945 1 120.0200517 532.790560
19936 19937 19938 1 121.3800518 83.010560
19936 19937 19939 1 120.0200517 532.790560
19938 19937 19939 1 121.3800518 83.010560
4994 19938 4995 1 109.50000 418.400000
4994 19938 5969 1 109.50000 418.400000
4994 19938 19937 1 103.70004 836.800000
4995 19938 5969 1 109.50000 418.400000
4995 19938 19937 1 103.70004 836.800000
5969 19938 19937 1 103.70004 836.800000
19937 19939 19940 1 119.8800511 375.723200
19937 19939 19941 1 120.0200517 532.790560
19940 19939 19941 1 119.8800511 375.723200
19939 19941 19942 1 119.8800511 375.723200
19939 19941 19943 1 120.0200517 532.790560
19942 19941 19943 1 119.8800511 375.723200
19941 19943 19944 1 119.8800511 375.723200
19941 19943 19945 1 120.0200517 532.790560
19944 19943 19945 1 119.8800511 375.723200
19936 19945 19943 1 120.0200517 532.790560
19936 19945 19946 1 119.8800511 375.723200
19943 19945 19946 1 119.8800511 375.723200
19947 19948 19949 1 119.8800511 375.723200
19947 19948 19957 1 119.8800511 375.723200
19949 19948 19957 1 120.0200517 532.790560
19948 19949 19950 1 121.3800518 83.010560
19948 19949 19951 1 120.0200517 532.790560
19950 19949 19951 1 121.3800518 83.010560
4996 19950 4997 1 109.50000 418.400000
4996 19950 11221 1 109.50000 418.400000
4996 19950 19949 1 103.70004 836.800000
4997 19950 11221 1 109.50000 418.400000
4997 19950 19949 1 103.70004 836.800000
11221 19950 19949 1 103.70004 836.800000
19949 19951 19952 1 119.8800511 375.723200
19949 19951 19953 1 120.0200517 532.790560
19952 19951 19953 1 119.8800511 375.723200
19951 19953 19954 1 119.8800511 375.723200
19951 19953 19955 1 120.0200517 532.790560
19954 19953 19955 1 119.8800511 375.723200
19953 19955 19956 1 119.8800511 375.723200
19953 19955 19957 1 120.0200517 532.790560
19956 19955 19957 1 119.8800511 375.723200
19948 19957 19955 1 120.0200517 532.790560
19948 19957 19958 1 119.8800511 375.723200
19955 19957 19958 1 119.8800511 375.723200
19959 19960 19961 1 119.8800511 375.723200
19959 19960 19969 1 119.8800511 375.723200
19961 19960 19969 1 120.0200517 532.790560
19960 19961 19962 1 121.3800518 83.010560
19960 19961 19963 1 120.0200517 532.790560
19962 19961 19963 1 121.3800518 83.010560
1972 19962 5030 1 109.50000 418.400000
1972 19962 5031 1 109.50000 418.400000
1972 19962 19961 1 103.70004 836.800000
5030 19962 5031 1 109.50000 418.400000
5030 19962 19961 1 103.70004 836.800000
5031 19962 19961 1 103.70004 836.800000
19961 19963 19964 1 119.8800511 375.723200
19961 19963 19965 1 120.0200517 532.790560
19964 19963 19965 1 119.8800511 375.723200
19963 19965 19966 1 119.8800511 375.723200
19963 19965 19967 1 120.0200517 532.790560
19966 19965 19967 1 119.8800511 375.723200
19965 19967 19968 1 119.8800511 375.723200
19965 19967 19969 1 120.0200517 532.790560
19968 19967 19969 1 119.8800511 375.723200
19960 19969 19967 1 120.0200517 532.790560
19960 19969 19970 1 119.8800511 375.723200
19967 19969 19970 1 119.8800511 375.723200
19971 19972 19973 1 119.8800511 375.723200
19971 19972 19981 1 119.8800511 375.723200
19973 19972 19981 1 120.0200517 532.790560
19972 19973 19974 1 121.3800518 83.010560
19972 19973 19975 1 120.0200517 532.790560
19974 19973 19975 1 121.3800518 83.010560
2014 19974 5038 1 109.50000 418.400000
2014 19974 11222 1 109.50000 418.400000
2014 19974 19973 1 103.70004 836.800000
5038 19974 11222 1 109.50000 418.400000
5038 19974 19973 1 103.70004 836.800000
11222 19974 19973 1 103.70004 836.800000
19973 19975 19976 1 119.8800511 375.723200
19973 19975 19977 1 120.0200517 532.790560
19976 19975 19977 1 119.8800511 375.723200
19975 19977 19978 1 119.8800511 375.723200
19975 19977 19979 1 120.0200517 532.790560
19978 19977 19979 1 119.8800511 375.723200
19977 19979 19980 1 119.8800511 375.723200
19977 19979 19981 1 120.0200517 532.790560
19980 19979 19981 1 119.8800511 375.723200
19972 19981 19979 1 120.0200517 532.790560
19972 19981 19982 1 119.8800511 375.723200
19979 19981 19982 1 119.8800511 375.723200
19983 19984 19985 1 119.8800511 375.723200
19983 19984 19993 1 119.8800511 375.723200
19985 19984 19993 1 120.0200517 532.790560
19984 19985 19986 1 121.3800518 83.010560
19984 19985 19987 1 120.0200517 532.790560
19986 19985 19987 1 121.3800518 83.010560
5043 19986 5044 1 109.50000 418.400000
5043 19986 11223 1 109.50000 418.400000
5043 19986 19985 1 103.70004 836.800000
5044 19986 11223 1 109.50000 418.400000
5044 19986 19985 1 103.70004 836.800000
11223 19986 19985 1 103.70004 836.800000
19985 19987 19988 1 119.8800511 375.723200
19985 19987 19989 1 120.0200517 532.790560
19988 19987 19989 1 119.8800511 375.723200
19987 19989 19990 1 119.8800511 375.723200
19987 19989 19991 1 120.0200517 532.790560
19990 19989 19991 1 119.8800511 375.723200
19989 19991 19992 1 119.8800511 375.723200
19989 19991 19993 1 120.0200517 532.790560
19992 19991 19993 1 119.8800511 375.723200
19984 19993 19991 1 120.0200517 532.790560
19984 19993 19994 1 119.8800511 375.723200
19991 19993 19994 1 119.8800511 375.723200
19995 19996 19997 1 119.8800511 375.723200
19995 19996 20005 1 119.8800511 375.723200
19997 19996 20005 1 120.0200517 532.790560
19996 19997 19998 1 121.3800518 83.010560
19996 19997 19999 1 120.0200517 532.790560
19998 19997 19999 1 121.3800518 83.010560
654 19998 5054 1 109.50000 418.400000
654 19998 5055 1 109.50000 418.400000
654 19998 19997 1 103.70004 836.800000
5054 19998 5055 1 109.50000 418.400000
5054 19998 19997 1 103.70004 836.800000
5055 19998 19997 1 103.70004 836.800000
19997 19999 20000 1 119.8800511 375.723200
19997 19999 20001 1 120.0200517 532.790560
20000 19999 20001 1 119.8800511 375.723200
19999 20001 20002 1 119.8800511 375.723200
19999 20001 20003 1 120.0200517 532.790560
20002 20001 20003 1 119.8800511 375.723200
20001 20003 20004 1 119.8800511 375.723200
20001 20003 20005 1 120.0200517 532.790560
20004 20003 20005 1 119.8800511 375.723200
19996 20005 20003 1 120.0200517 532.790560
19996 20005 20006 1 119.8800511 375.723200
20003 20005 20006 1 119.8800511 375.723200
20007 20008 20009 1 119.8800511 375.723200
20007 20008 20017 1 119.8800511 375.723200
20009 20008 20017 1 120.0200517 532.790560
20008 20009 20010 1 121.3800518 83.010560
20008 20009 20011 1 120.0200517 532.790560
20010 20009 20011 1 121.3800518 83.010560
4709 20010 5104 1 109.50000 418.400000
4709 20010 5105 1 109.50000 418.400000
4709 20010 20009 1 103.70004 836.800000
5104 20010 5105 1 109.50000 418.400000
5104 20010 20009 1 103.70004 836.800000
5105 20010 20009 1 103.70004 836.800000
20009 20011 20012 1 119.8800511 375.723200
20009 20011 20013 1 120.0200517 532.790560
20012 20011 20013 1 119.8800511 375.723200
20011 20013 20014 1 119.8800511 375.723200
20011 20013 20015 1 120.0200517 532.790560
20014 20013 20015 1 119.8800511 375.723200
20013 20015 20016 1 119.8800511 375.723200
20013 20015 20017 1 120.0200517 532.790560
20016 20015 20017 1 119.8800511 375.723200
20008 20017 20015 1 120.0200517 532.790560
20008 20017 20018 1 119.8800511 375.723200
20015 20017 20018 1 119.8800511 375.723200
20019 20020 20021 1 119.8800511 375.723200
20019 20020 20029 1 119.8800511 375.723200
20021 20020 20029 1 120.0200517 532.790560
20020 20021 20022 1 121.3800518 83.010560
20020 20021 20023 1 120.0200517 532.790560
20022 20021 20023 1 121.3800518 83.010560
5130 20022 5131 1 109.50000 418.400000
5130 20022 5132 1 109.50000 418.400000
5130 20022 20021 1 103.70004 836.800000
5131 20022 5132 1 109.50000 418.400000
5131 20022 20021 1 103.70004 836.800000
5132 20022 20021 1 103.70004 836.800000
20021 20023 20024 1 119.8800511 375.723200
20021 20023 20025 1 120.0200517 532.790560
20024 20023 20025 1 119.8800511 375.723200
20023 20025 20026 1 119.8800511 375.723200
20023 20025 20027 1 120.0200517 532.790560
20026 20025 20027 1 119.8800511 375.723200
20025 20027 20028 1 119.8800511 375.723200
20025 20027 20029 1 120.0200517 532.790560
20028 20027 20029 1 119.8800511 375.723200
20020 20029 20027 1 120.0200517 532.790560
20020 20029 20030 1 119.8800511 375.723200
20027 20029 20030 1 119.8800511 375.723200
20031 20032 20033 1 119.8800511 375.723200
20031 20032 20041 1 119.8800511 375.723200
20033 20032 20041 1 120.0200517 532.790560
20032 20033 20034 1 121.3800518 83.010560
20032 20033 20035 1 120.0200517 532.790560
20034 20033 20035 1 121.3800518 83.010560
5135 20034 5136 1 109.50000 418.400000
5135 20034 9621 1 109.50000 418.400000
5135 20034 20033 1 103.70004 836.800000
5136 20034 9621 1 109.50000 418.400000
5136 20034 20033 1 103.70004 836.800000
9621 20034 20033 1 103.70004 836.800000
20033 20035 20036 1 119.8800511 375.723200
20033 20035 20037 1 120.0200517 532.790560
20036 20035 20037 1 119.8800511 375.723200
20035 20037 20038 1 119.8800511 375.723200
20035 20037 20039 1 120.0200517 532.790560
20038 20037 20039 1 119.8800511 375.723200
20037 20039 20040 1 119.8800511 375.723200
20037 20039 20041 1 120.0200517 532.790560
20040 20039 20041 1 119.8800511 375.723200
20032 20041 20039 1 120.0200517 532.790560
20032 20041 20042 1 119.8800511 375.723200
20039 20041 20042 1 119.8800511 375.723200
20043 20044 20045 1 119.8800511 375.723200
20043 20044 20053 1 119.8800511 375.723200
20045 20044 20053 1 120.0200517 532.790560
20044 20045 20046 1 121.3800518 83.010560
20044 20045 20047 1 120.0200517 532.790560
20046 20045 20047 1 121.3800518 83.010560
5141 20046 5142 1 109.50000 418.400000
5141 20046 5143 1 109.50000 418.400000
5141 20046 20045 1 103.70004 836.800000
5142 20046 5143 1 109.50000 418.400000
5142 20046 20045 1 103.70004 836.800000
5143 20046 20045 1 103.70004 836.800000
20045 20047 20048 1 119.8800511 375.723200
20045 20047 20049 1 120.0200517 532.790560
20048 20047 20049 1 119.8800511 375.723200
20047 20049 20050 1 119.8800511 375.723200
20047 20049 20051 1 120.0200517 532.790560
20050 20049 20051 1 119.8800511 375.723200
20049 20051 20052 1 119.8800511 375.723200
20049 20051 20053 1 120.0200517 532.790560
20052 20051 20053 1 119.8800511 375.723200
20044 20053 20051 1 120.0200517 532.790560
20044 20053 20054 1 119.8800511 375.723200
20051 20053 20054 1 119.8800511 375.723200
20055 20056 20057 1 119.8800511 375.723200
20055 20056 20065 1 119.8800511 375.723200
20057 20056 20065 1 120.0200517 532.790560
20056 20057 20058 1 121.3800518 83.010560
20056 20057 20059 1 120.0200517 532.790560
20058 20057 20059 1 121.3800518 83.010560
1864 20058 1987 1 109.50000 418.400000
1864 20058 11224 1 109.50000 418.400000
1864 20058 20057 1 103.70004 836.800000
1987 20058 11224 1 109.50000 418.400000
1987 20058 20057 1 103.70004 836.800000
11224 20058 20057 1 103.70004 836.800000
20057 20059 20060 1 119.8800511 375.723200
20057 20059 20061 1 120.0200517 532.790560
20060 20059 20061 1 119.8800511 375.723200
20059 20061 20062 1 119.8800511 375.723200
20059 20061 20063 1 120.0200517 532.790560
20062 20061 20063 1 119.8800511 375.723200
20061 20063 20064 1 119.8800511 375.723200
20061 20063 20065 1 120.0200517 532.790560
20064 20063 20065 1 119.8800511 375.723200
20056 20065 20063 1 120.0200517 532.790560
20056 20065 20066 1 119.8800511 375.723200
20063 20065 20066 1 119.8800511 375.723200
20067 20068 20069 1 119.8800511 375.723200
20067 20068 20077 1 119.8800511 375.723200
20069 20068 20077 1 120.0200517 532.790560
20068 20069 20070 1 121.3800518 83.010560
20068 20069 20071 1 120.0200517 532.790560
20070 20069 20071 1 121.3800518 83.010560
2443 20070 5172 1 109.50000 418.400000
2443 20070 11225 1 109.50000 418.400000
2443 20070 20069 1 103.70004 836.800000
5172 20070 11225 1 109.50000 418.400000
5172 20070 20069 1 103.70004 836.800000
11225 20070 20069 1 103.70004 836.800000
20069 20071 20072 1 119.8800511 375.723200
20069 20071 20073 1 120.0200517 532.790560
20072 20071 20073 1 119.8800511 375.723200
20071 20073 20074 1 119.8800511 375.723200
20071 20073 20075 1 120.0200517 532.790560
20074 20073 20075 1 119.8800511 375.723200
20073 20075 20076 1 119.8800511 375.723200
20073 20075 20077 1 120.0200517 532.790560
20076 20075 20077 1 119.8800511 375.723200
20068 20077 20075 1 120.0200517 532.790560
20068 20077 20078 1 119.8800511 375.723200
20075 20077 20078 1 119.8800511 375.723200
20079 20080 20081 1 119.8800511 375.723200
20079 20080 20089 1 119.8800511 375.723200
20081 20080 20089 1 120.0200517 532.790560
20080 20081 20082 1 121.3800518 83.010560
20080 20081 20083 1 120.0200517 532.790560
20082 20081 20083 1 121.3800518 83.010560
5173 20082 5174 1 109.50000 418.400000
5173 20082 11226 1 109.50000 418.400000
5173 20082 20081 1 103.70004 836.800000
5174 20082 11226 1 109.50000 418.400000
5174 20082 20081 1 103.70004 836.800000
11226 20082 20081 1 103.70004 836.800000
20081 20083 20084 1 119.8800511 375.723200
20081 20083 20085 1 120.0200517 532.790560
20084 20083 20085 1 119.8800511 375.723200
20083 20085 20086 1 119.8800511 375.723200
20083 20085 20087 1 120.0200517 532.790560
20086 20085 20087 1 119.8800511 375.723200
20085 20087 20088 1 119.8800511 375.723200
20085 20087 20089 1 120.0200517 532.790560
20088 20087 20089 1 119.8800511 375.723200
20080 20089 20087 1 120.0200517 532.790560
20080 20089 20090 1 119.8800511 375.723200
20087 20089 20090 1 119.8800511 375.723200
20091 20092 20093 1 119.8800511 375.723200
20091 20092 20101 1 119.8800511 375.723200
20093 20092 20101 1 120.0200517 532.790560
20092 20093 20094 1 121.3800518 83.010560
20092 20093 20095 1 120.0200517 532.790560
20094 20093 20095 1 121.3800518 83.010560
1643 20094 5134 1 109.50000 418.400000
1643 20094 5221 1 109.50000 418.400000
1643 20094 20093 1 103.70004 836.800000
5134 20094 5221 1 109.50000 418.400000
5134 20094 20093 1 103.70004 836.800000
5221 20094 20093 1 103.70004 836.800000
20093 20095 20096 1 119.8800511 375.723200
20093 20095 20097 1 120.0200517 532.790560
20096 20095 20097 1 119.8800511 375.723200
20095 20097 20098 1 119.8800511 375.723200
20095 20097 20099 1 120.0200517 532.790560
20098 20097 20099 1 119.8800511 375.723200
20097 20099 20100 1 119.8800511 375.723200
20097 20099 20101 1 120.0200517 532.790560
20100 20099 20101 1 119.8800511 375.723200
20092 20101 20099 1 120.0200517 532.790560
20092 20101 20102 1 119.8800511 375.723200
20099 20101 20102 1 119.8800511 375.723200
20103 20104 20105 1 119.8800511 375.723200
20103 20104 20113 1 119.8800511 375.723200
20105 20104 20113 1 120.0200517 532.790560
20104 20105 20106 1 121.3800518 83.010560
20104 20105 20107 1 120.0200517 532.790560
20106 20105 20107 1 121.3800518 83.010560
1288 20106 5234 1 109.50000 418.400000
1288 20106 5235 1 109.50000 418.400000
1288 20106 20105 1 103.70004 836.800000
5234 20106 5235 1 109.50000 418.400000
5234 20106 20105 1 103.70004 836.800000
5235 20106 20105 1 103.70004 836.800000
20105 20107 20108 1 119.8800511 375.723200
20105 20107 20109 1 120.0200517 532.790560
20108 20107 20109 1 119.8800511 375.723200
20107 20109 20110 1 119.8800511 375.723200
20107 20109 20111 1 120.0200517 532.790560
20110 20109 20111 1 119.8800511 375.723200
20109 20111 20112 1 119.8800511 375.723200
20109 20111 20113 1 120.0200517 532.790560
20112 20111 20113 1 119.8800511 375.723200
20104 20113 20111 1 120.0200517 532.790560
20104 20113 20114 1 119.8800511 375.723200
20111 20113 20114 1 119.8800511 375.723200
20115 20116 20117 1 119.8800511 375.723200
20115 20116 20125 1 119.8800511 375.723200
20117 20116 20125 1 120.0200517 532.790560
20116 20117 20118 1 121.3800518 83.010560
20116 20117 20119 1 120.0200517 532.790560
20118 20117 20119 1 121.3800518 83.010560
3625 20118 5256 1 109.50000 418.400000
3625 20118 5257 1 109.50000 418.400000
3625 20118 20117 1 103.70004 836.800000
5256 20118 5257 1 109.50000 418.400000
5256 20118 20117 1 103.70004 836.800000
5257 20118 20117 1 103.70004 836.800000
20117 20119 20120 1 119.8800511 375.723200
20117 20119 20121 1 120.0200517 532.790560
20120 20119 20121 1 119.8800511 375.723200
20119 20121 20122 1 119.8800511 375.723200
20119 20121 20123 1 120.0200517 532.790560
20122 20121 20123 1 119.8800511 375.723200
20121 20123 20124 1 119.8800511 375.723200
20121 20123 20125 1 120.0200517 532.790560
20124 20123 20125 1 119.8800511 375.723200
20116 20125 20123 1 120.0200517 532.790560
20116 20125 20126 1 119.8800511 375.723200
20123 20125 20126 1 119.8800511 375.723200
20127 20128 20129 1 119.8800511 375.723200
20127 20128 20137 1 119.8800511 375.723200
20129 20128 20137 1 120.0200517 532.790560
20128 20129 20130 1 121.3800518 83.010560
20128 20129 20131 1 120.0200517 532.790560
20130 20129 20131 1 121.3800518 83.010560
356 20130 5260 1 109.50000 418.400000
356 20130 5261 1 109.50000 418.400000
356 20130 20129 1 103.70004 836.800000
5260 20130 5261 1 109.50000 418.400000
5260 20130 20129 1 103.70004 836.800000
5261 20130 20129 1 103.70004 836.800000
20129 20131 20132 1 119.8800511 375.723200
20129 20131 20133 1 120.0200517 532.790560
20132 20131 20133 1 119.8800511 375.723200
20131 20133 20134 1 119.8800511 375.723200
20131 20133 20135 1 120.0200517 532.790560
20134 20133 20135 1 119.8800511 375.723200
20133 20135 20136 1 119.8800511 375.723200
20133 20135 20137 1 120.0200517 532.790560
20136 20135 20137 1 119.8800511 375.723200
20128 20137 20135 1 120.0200517 532.790560
20128 20137 20138 1 119.8800511 375.723200
20135 20137 20138 1 119.8800511 375.723200
20139 20140 20141 1 119.8800511 375.723200
20139 20140 20149 1 119.8800511 375.723200
20141 20140 20149 1 120.0200517 532.790560
20140 20141 20142 1 121.3800518 83.010560
20140 20141 20143 1 120.0200517 532.790560
20142 20141 20143 1 121.3800518 83.010560
5171 20142 5287 1 109.50000 418.400000
5171 20142 5288 1 109.50000 418.400000
5171 20142 20141 1 103.70004 836.800000
5287 20142 5288 1 109.50000 418.400000
5287 20142 20141 1 103.70004 836.800000
5288 20142 20141 1 103.70004 836.800000
20141 20143 20144 1 119.8800511 375.723200
20141 20143 20145 1 120.0200517 532.790560
20144 20143 20145 1 119.8800511 375.723200
20143 20145 20146 1 119.8800511 375.723200
20143 20145 20147 1 120.0200517 532.790560
20146 20145 20147 1 119.8800511 375.723200
20145 20147 20148 1 119.8800511 375.723200
20145 20147 20149 1 120.0200517 532.790560
20148 20147 20149 1 119.8800511 375.723200
20140 20149 20147 1 120.0200517 532.790560
20140 20149 20150 1 119.8800511 375.723200
20147 20149 20150 1 119.8800511 375.723200
20151 20152 20153 1 119.8800511 375.723200
20151 20152 20161 1 119.8800511 375.723200
20153 20152 20161 1 120.0200517 532.790560
20152 20153 20154 1 121.3800518 83.010560
20152 20153 20155 1 120.0200517 532.790560
20154 20153 20155 1 121.3800518 83.010560
5298 20154 5299 1 109.50000 418.400000
5298 20154 11227 1 109.50000 418.400000
5298 20154 20153 1 103.70004 836.800000
5299 20154 11227 1 109.50000 418.400000
5299 20154 20153 1 103.70004 836.800000
11227 20154 20153 1 103.70004 836.800000
20153 20155 20156 1 119.8800511 375.723200
20153 20155 20157 1 120.0200517 532.790560
20156 20155 20157 1 119.8800511 375.723200
20155 20157 20158 1 119.8800511 375.723200
20155 20157 20159 1 120.0200517 532.790560
20158 20157 20159 1 119.8800511 375.723200
20157 20159 20160 1 119.8800511 375.723200
20157 20159 20161 1 120.0200517 532.790560
20160 20159 20161 1 119.8800511 375.723200
20152 20161 20159 1 120.0200517 532.790560
20152 20161 20162 1 119.8800511 375.723200
20159 20161 20162 1 119.8800511 375.723200
20163 20164 20165 1 119.8800511 375.723200
20163 20164 20173 1 119.8800511 375.723200
20165 20164 20173 1 120.0200517 532.790560
20164 20165 20166 1 121.3800518 83.010560
20164 20165 20167 1 120.0200517 532.790560
20166 20165 20167 1 121.3800518 83.010560
5324 20166 5325 1 109.50000 418.400000
5324 20166 11228 1 109.50000 418.400000
5324 20166 20165 1 103.70004 836.800000
5325 20166 11228 1 109.50000 418.400000
5325 20166 20165 1 103.70004 836.800000
11228 20166 20165 1 103.70004 836.800000
20165 20167 20168 1 119.8800511 375.723200
20165 20167 20169 1 120.0200517 532.790560
20168 20167 20169 1 119.8800511 375.723200
20167 20169 20170 1 119.8800511 375.723200
20167 20169 20171 1 120.0200517 532.790560
20170 20169 20171 1 119.8800511 375.723200
20169 20171 20172 1 119.8800511 375.723200
20169 20171 20173 1 120.0200517 532.790560
20172 20171 20173 1 119.8800511 375.723200
20164 20173 20171 1 120.0200517 532.790560
20164 20173 20174 1 119.8800511 375.723200
20171 20173 20174 1 119.8800511 375.723200
20175 20176 20177 1 119.8800511 375.723200
20175 20176 20185 1 119.8800511 375.723200
20177 20176 20185 1 120.0200517 532.790560
20176 20177 20178 1 121.3800518 83.010560
20176 20177 20179 1 120.0200517 532.790560
20178 20177 20179 1 121.3800518 83.010560
5019 20178 5344 1 109.50000 418.400000
5019 20178 11229 1 109.50000 418.400000
5019 20178 20177 1 103.70004 836.800000
5344 20178 11229 1 109.50000 418.400000
5344 20178 20177 1 103.70004 836.800000
11229 20178 20177 1 103.70004 836.800000
20177 20179 20180 1 119.8800511 375.723200
20177 20179 20181 1 120.0200517 532.790560
20180 20179 20181 1 119.8800511 375.723200
20179 20181 20182 1 119.8800511 375.723200
20179 20181 20183 1 120.0200517 532.790560
20182 20181 20183 1 119.8800511 375.723200
20181 20183 20184 1 119.8800511 375.723200
20181 20183 20185 1 120.0200517 532.790560
20184 20183 20185 1 119.8800511 375.723200
20176 20185 20183 1 120.0200517 532.790560
20176 20185 20186 1 119.8800511 375.723200
20183 20185 20186 1 119.8800511 375.723200
20187 20188 20189 1 119.8800511 375.723200
20187 20188 20197 1 119.8800511 375.723200
20189 20188 20197 1 120.0200517 532.790560
20188 20189 20190 1 121.3800518 83.010560
20188 20189 20191 1 120.0200517 532.790560
20190 20189 20191 1 121.3800518 83.010560
940 20190 5352 1 109.50000 418.400000
940 20190 11230 1 109.50000 418.400000
940 20190 20189 1 103.70004 836.800000
5352 20190 11230 1 109.50000 418.400000
5352 20190 20189 1 103.70004 836.800000
11230 20190 20189 1 103.70004 836.800000
20189 20191 20192 1 119.8800511 375.723200
20189 20191 20193 1 120.0200517 532.790560
20192 20191 20193 1 119.8800511 375.723200
20191 20193 20194 1 119.8800511 375.723200
20191 20193 20195 1 120.0200517 532.790560
20194 20193 20195 1 119.8800511 375.723200
20193 20195 20196 1 119.8800511 375.723200
20193 20195 20197 1 120.0200517 532.790560
20196 20195 20197 1 119.8800511 375.723200
20188 20197 20195 1 120.0200517 532.790560
20188 20197 20198 1 119.8800511 375.723200
20195 20197 20198 1 119.8800511 375.723200
20199 20200 20201 1 119.8800511 375.723200
20199 20200 20209 1 119.8800511 375.723200
20201 20200 20209 1 120.0200517 532.790560
20200 20201 20202 1 121.3800518 83.010560
20200 20201 20203 1 120.0200517 532.790560
20202 20201 20203 1 121.3800518 83.010560
3034 20202 4956 1 109.50000 418.400000
3034 20202 5353 1 109.50000 418.400000
3034 20202 20201 1 103.70004 836.800000
4956 20202 5353 1 109.50000 418.400000
4956 20202 20201 1 103.70004 836.800000
5353 20202 20201 1 103.70004 836.800000
20201 20203 20204 1 119.8800511 375.723200
20201 20203 20205 1 120.0200517 532.790560
20204 20203 20205 1 119.8800511 375.723200
20203 20205 20206 1 119.8800511 375.723200
20203 20205 20207 1 120.0200517 532.790560
20206 20205 20207 1 119.8800511 375.723200
20205 20207 20208 1 119.8800511 375.723200
20205 20207 20209 1 120.0200517 532.790560
20208 20207 20209 1 119.8800511 375.723200
20200 20209 20207 1 120.0200517 532.790560
20200 20209 20210 1 119.8800511 375.723200
20207 20209 20210 1 119.8800511 375.723200
20211 20212 20213 1 119.8800511 375.723200
20211 20212 20221 1 119.8800511 375.723200
20213 20212 20221 1 120.0200517 532.790560
20212 20213 20214 1 121.3800518 83.010560
20212 20213 20215 1 120.0200517 532.790560
20214 20213 20215 1 121.3800518 83.010560
1526 20214 5356 1 109.50000 418.400000
1526 20214 11231 1 109.50000 418.400000
1526 20214 20213 1 103.70004 836.800000
5356 20214 11231 1 109.50000 418.400000
5356 20214 20213 1 103.70004 836.800000
11231 20214 20213 1 103.70004 836.800000
20213 20215 20216 1 119.8800511 375.723200
20213 20215 20217 1 120.0200517 532.790560
20216 20215 20217 1 119.8800511 375.723200
20215 20217 20218 1 119.8800511 375.723200
20215 20217 20219 1 120.0200517 532.790560
20218 20217 20219 1 119.8800511 375.723200
20217 20219 20220 1 119.8800511 375.723200
20217 20219 20221 1 120.0200517 532.790560
20220 20219 20221 1 119.8800511 375.723200
20212 20221 20219 1 120.0200517 532.790560
20212 20221 20222 1 119.8800511 375.723200
20219 20221 20222 1 119.8800511 375.723200
20223 20224 20225 1 119.8800511 375.723200
20223 20224 20233 1 119.8800511 375.723200
20225 20224 20233 1 120.0200517 532.790560
20224 20225 20226 1 121.3800518 83.010560
20224 20225 20227 1 120.0200517 532.790560
20226 20225 20227 1 121.3800518 83.010560
5373 20226 5374 1 109.50000 418.400000
5373 20226 11232 1 109.50000 418.400000
5373 20226 20225 1 103.70004 836.800000
5374 20226 11232 1 109.50000 418.400000
5374 20226 20225 1 103.70004 836.800000
11232 20226 20225 1 103.70004 836.800000
20225 20227 20228 1 119.8800511 375.723200
20225 20227 20229 1 120.0200517 532.790560
20228 20227 20229 1 119.8800511 375.723200
20227 20229 20230 1 119.8800511 375.723200
20227 20229 20231 1 120.0200517 532.790560
20230 20229 20231 1 119.8800511 375.723200
20229 20231 20232 1 119.8800511 375.723200
20229 20231 20233 1 120.0200517 532.790560
20232 20231 20233 1 119.8800511 375.723200
20224 20233 20231 1 120.0200517 532.790560
20224 20233 20234 1 119.8800511 375.723200
20231 20233 20234 1 119.8800511 375.723200
20235 20236 20237 1 119.8800511 375.723200
20235 20236 20245 1 119.8800511 375.723200
20237 20236 20245 1 120.0200517 532.790560
20236 20237 20238 1 121.3800518 83.010560
20236 20237 20239 1 120.0200517 532.790560
20238 20237 20239 1 121.3800518 83.010560
3301 20238 5391 1 109.50000 418.400000
3301 20238 5392 1 109.50000 418.400000
3301 20238 20237 1 103.70004 836.800000
5391 20238 5392 1 109.50000 418.400000
5391 20238 20237 1 103.70004 836.800000
5392 20238 20237 1 103.70004 836.800000
20237 20239 20240 1 119.8800511 375.723200
20237 20239 20241 1 120.0200517 532.790560
20240 20239 20241 1 119.8800511 375.723200
20239 20241 20242 1 119.8800511 375.723200
20239 20241 20243 1 120.0200517 532.790560
20242 20241 20243 1 119.8800511 375.723200
20241 20243 20244 1 119.8800511 375.723200
20241 20243 20245 1 120.0200517 532.790560
20244 20243 20245 1 119.8800511 375.723200
20236 20245 20243 1 120.0200517 532.790560
20236 20245 20246 1 119.8800511 375.723200
20243 20245 20246 1 119.8800511 375.723200
20247 20248 20249 1 119.8800511 375.723200
20247 20248 20257 1 119.8800511 375.723200
20249 20248 20257 1 120.0200517 532.790560
20248 20249 20250 1 121.3800518 83.010560
20248 20249 20251 1 120.0200517 532.790560
20250 20249 20251 1 121.3800518 83.010560
5393 20250 5394 1 109.50000 418.400000
5393 20250 11233 1 109.50000 418.400000
5393 20250 20249 1 103.70004 836.800000
5394 20250 11233 1 109.50000 418.400000
5394 20250 20249 1 103.70004 836.800000
11233 20250 20249 1 103.70004 836.800000
20249 20251 20252 1 119.8800511 375.723200
20249 20251 20253 1 120.0200517 532.790560
20252 20251 20253 1 119.8800511 375.723200
20251 20253 20254 1 119.8800511 375.723200
20251 20253 20255 1 120.0200517 532.790560
20254 20253 20255 1 119.8800511 375.723200
20253 20255 20256 1 119.8800511 375.723200
20253 20255 20257 1 120.0200517 532.790560
20256 20255 20257 1 119.8800511 375.723200
20248 20257 20255 1 120.0200517 532.790560
20248 20257 20258 1 119.8800511 375.723200
20255 20257 20258 1 119.8800511 375.723200
20259 20260 20261 1 119.8800511 375.723200
20259 20260 20269 1 119.8800511 375.723200
20261 20260 20269 1 120.0200517 532.790560
20260 20261 20262 1 121.3800518 83.010560
20260 20261 20263 1 120.0200517 532.790560
20262 20261 20263 1 121.3800518 83.010560
5415 20262 5416 1 109.50000 418.400000
5415 20262 10084 1 109.50000 418.400000
5415 20262 20261 1 103.70004 836.800000
5416 20262 10084 1 109.50000 418.400000
5416 20262 20261 1 103.70004 836.800000
10084 20262 20261 1 103.70004 836.800000
20261 20263 20264 1 119.8800511 375.723200
20261 20263 20265 1 120.0200517 532.790560
20264 20263 20265 1 119.8800511 375.723200
20263 20265 20266 1 119.8800511 375.723200
20263 20265 20267 1 120.0200517 532.790560
20266 20265 20267 1 119.8800511 375.723200
20265 20267 20268 1 119.8800511 375.723200
20265 20267 20269 1 120.0200517 532.790560
20268 20267 20269 1 119.8800511 375.723200
20260 20269 20267 1 120.0200517 532.790560
20260 20269 20270 1 119.8800511 375.723200
20267 20269 20270 1 119.8800511 375.723200
20271 20272 20273 1 119.8800511 375.723200
20271 20272 20281 1 119.8800511 375.723200
20273 20272 20281 1 120.0200517 532.790560
20272 20273 20274 1 121.3800518 83.010560
20272 20273 20275 1 120.0200517 532.790560
20274 20273 20275 1 121.3800518 83.010560
1414 20274 4971 1 109.50000 418.400000
1414 20274 11234 1 109.50000 418.400000
1414 20274 20273 1 103.70004 836.800000
4971 20274 11234 1 109.50000 418.400000
4971 20274 20273 1 103.70004 836.800000
11234 20274 20273 1 103.70004 836.800000
20273 20275 20276 1 119.8800511 375.723200
20273 20275 20277 1 120.0200517 532.790560
20276 20275 20277 1 119.8800511 375.723200
20275 20277 20278 1 119.8800511 375.723200
20275 20277 20279 1 120.0200517 532.790560
20278 20277 20279 1 119.8800511 375.723200
20277 20279 20280 1 119.8800511 375.723200
20277 20279 20281 1 120.0200517 532.790560
20280 20279 20281 1 119.8800511 375.723200
20272 20281 20279 1 120.0200517 532.790560
20272 20281 20282 1 119.8800511 375.723200
20279 20281 20282 1 119.8800511 375.723200
20283 20284 20285 1 119.8800511 375.723200
20283 20284 20293 1 119.8800511 375.723200
20285 20284 20293 1 120.0200517 532.790560
20284 20285 20286 1 121.3800518 83.010560
20284 20285 20287 1 120.0200517 532.790560
20286 20285 20287 1 121.3800518 83.010560
4427 20286 5427 1 109.50000 418.400000
4427 20286 5428 1 109.50000 418.400000
4427 20286 20285 1 103.70004 836.800000
5427 20286 5428 1 109.50000 418.400000
5427 20286 20285 1 103.70004 836.800000
5428 20286 20285 1 103.70004 836.800000
20285 20287 20288 1 119.8800511 375.723200
20285 20287 20289 1 120.0200517 532.790560
20288 20287 20289 1 119.8800511 375.723200
20287 20289 20290 1 119.8800511 375.723200
20287 20289 20291 1 120.0200517 532.790560
20290 20289 20291 1 119.8800511 375.723200
20289 20291 20292 1 119.8800511 375.723200
20289 20291 20293 1 120.0200517 532.790560
20292 20291 20293 1 119.8800511 375.723200
20284 20293 20291 1 120.0200517 532.790560
20284 20293 20294 1 119.8800511 375.723200
20291 20293 20294 1 119.8800511 375.723200
20295 20296 20297 1 119.8800511 375.723200
20295 20296 20305 1 119.8800511 375.723200
20297 20296 20305 1 120.0200517 532.790560
20296 20297 20298 1 121.3800518 83.010560
20296 20297 20299 1 120.0200517 532.790560
20298 20297 20299 1 121.3800518 83.010560
5467 20298 5468 1 109.50000 418.400000
5467 20298 5469 1 109.50000 418.400000
5467 20298 20297 1 103.70004 836.800000
5468 20298 5469 1 109.50000 418.400000
5468 20298 20297 1 103.70004 836.800000
5469 20298 20297 1 103.70004 836.800000
20297 20299 20300 1 119.8800511 375.723200
20297 20299 20301 1 120.0200517 532.790560
20300 20299 20301 1 119.8800511 375.723200
20299 20301 20302 1 119.8800511 375.723200
20299 20301 20303 1 120.0200517 532.790560
20302 20301 20303 1 119.8800511 375.723200
20301 20303 20304 1 119.8800511 375.723200
20301 20303 20305 1 120.0200517 532.790560
20304 20303 20305 1 119.8800511 375.723200
20296 20305 20303 1 120.0200517 532.790560
20296 20305 20306 1 119.8800511 375.723200
20303 20305 20306 1 119.8800511 375.723200
20307 20308 20309 1 119.8800511 375.723200
20307 20308 20317 1 119.8800511 375.723200
20309 20308 20317 1 120.0200517 532.790560
20308 20309 20310 1 121.3800518 83.010560
20308 20309 20311 1 120.0200517 532.790560
20310 20309 20311 1 121.3800518 83.010560
4589 20310 5472 1 109.50000 418.400000
4589 20310 5473 1 109.50000 418.400000
4589 20310 20309 1 103.70004 836.800000
5472 20310 5473 1 109.50000 418.400000
5472 20310 20309 1 103.70004 836.800000
5473 20310 20309 1 103.70004 836.800000
20309 20311 20312 1 119.8800511 375.723200
20309 20311 20313 1 120.0200517 532.790560
20312 20311 20313 1 119.8800511 375.723200
20311 20313 20314 1 119.8800511 375.723200
20311 20313 20315 1 120.0200517 532.790560
20314 20313 20315 1 119.8800511 375.723200
20313 20315 20316 1 119.8800511 375.723200
20313 20315 20317 1 120.0200517 532.790560
20316 20315 20317 1 119.8800511 375.723200
20308 20317 20315 1 120.0200517 532.790560
20308 20317 20318 1 119.8800511 375.723200
20315 20317 20318 1 119.8800511 375.723200
20319 20320 20321 1 119.8800511 375.723200
20319 20320 20329 1 119.8800511 375.723200
20321 20320 20329 1 120.0200517 532.790560
20320 20321 20322 1 121.3800518 83.010560
20320 20321 20323 1 120.0200517 532.790560
20322 20321 20323 1 121.3800518 83.010560
5496 20322 5497 1 109.50000 418.400000
5496 20322 5498 1 109.50000 418.400000
5496 20322 20321 1 103.70004 836.800000
5497 20322 5498 1 109.50000 418.400000
5497 20322 20321 1 103.70004 836.800000
5498 20322 20321 1 103.70004 836.800000
20321 20323 20324 1 119.8800511 375.723200
20321 20323 20325 1 120.0200517 532.790560
20324 20323 20325 1 119.8800511 375.723200
20323 20325 20326 1 119.8800511 375.723200
20323 20325 20327 1 120.0200517 532.790560
20326 20325 20327 1 119.8800511 375.723200
20325 20327 20328 1 119.8800511 375.723200
20325 20327 20329 1 120.0200517 532.790560
20328 20327 20329 1 119.8800511 375.723200
20320 20329 20327 1 120.0200517 532.790560
20320 20329 20330 1 119.8800511 375.723200
20327 20329 20330 1 119.8800511 375.723200
20331 20332 20333 1 119.8800511 375.723200
20331 20332 20341 1 119.8800511 375.723200
20333 20332 20341 1 120.0200517 532.790560
20332 20333 20334 1 121.3800518 83.010560
20332 20333 20335 1 120.0200517 532.790560
20334 20333 20335 1 121.3800518 83.010560
5501 20334 5502 1 109.50000 418.400000
5501 20334 5503 1 109.50000 418.400000
5501 20334 20333 1 103.70004 836.800000
5502 20334 5503 1 109.50000 418.400000
5502 20334 20333 1 103.70004 836.800000
5503 20334 20333 1 103.70004 836.800000
20333 20335 20336 1 119.8800511 375.723200
20333 20335 20337 1 120.0200517 532.790560
20336 20335 20337 1 119.8800511 375.723200
20335 20337 20338 1 119.8800511 375.723200
20335 20337 20339 1 120.0200517 532.790560
20338 20337 20339 1 119.8800511 375.723200
20337 20339 20340 1 119.8800511 375.723200
20337 20339 20341 1 120.0200517 532.790560
20340 20339 20341 1 119.8800511 375.723200
20332 20341 20339 1 120.0200517 532.790560
20332 20341 20342 1 119.8800511 375.723200
20339 20341 20342 1 119.8800511 375.723200
20343 20344 20345 1 119.8800511 375.723200
20343 20344 20353 1 119.8800511 375.723200
20345 20344 20353 1 120.0200517 532.790560
20344 20345 20346 1 121.3800518 83.010560
20344 20345 20347 1 120.0200517 532.790560
20346 20345 20347 1 121.3800518 83.010560
1387 20346 3539 1 109.50000 418.400000
1387 20346 5516 1 109.50000 418.400000
1387 20346 20345 1 103.70004 836.800000
3539 20346 5516 1 109.50000 418.400000
3539 20346 20345 1 103.70004 836.800000
5516 20346 20345 1 103.70004 836.800000
20345 20347 20348 1 119.8800511 375.723200
20345 20347 20349 1 120.0200517 532.790560
20348 20347 20349 1 119.8800511 375.723200
20347 20349 20350 1 119.8800511 375.723200
20347 20349 20351 1 120.0200517 532.790560
20350 20349 20351 1 119.8800511 375.723200
20349 20351 20352 1 119.8800511 375.723200
20349 20351 20353 1 120.0200517 532.790560
20352 20351 20353 1 119.8800511 375.723200
20344 20353 20351 1 120.0200517 532.790560
20344 20353 20354 1 119.8800511 375.723200
20351 20353 20354 1 119.8800511 375.723200
20355 20356 20357 1 119.8800511 375.723200
20355 20356 20365 1 119.8800511 375.723200
20357 20356 20365 1 120.0200517 532.790560
20356 20357 20358 1 121.3800518 83.010560
20356 20357 20359 1 120.0200517 532.790560
20358 20357 20359 1 121.3800518 83.010560
5172 20358 5526 1 109.50000 418.400000
5172 20358 5527 1 109.50000 418.400000
5172 20358 20357 1 103.70004 836.800000
5526 20358 5527 1 109.50000 418.400000
5526 20358 20357 1 103.70004 836.800000
5527 20358 20357 1 103.70004 836.800000
20357 20359 20360 1 119.8800511 375.723200
20357 20359 20361 1 120.0200517 532.790560
20360 20359 20361 1 119.8800511 375.723200
20359 20361 20362 1 119.8800511 375.723200
20359 20361 20363 1 120.0200517 532.790560
20362 20361 20363 1 119.8800511 375.723200
20361 20363 20364 1 119.8800511 375.723200
20361 20363 20365 1 120.0200517 532.790560
20364 20363 20365 1 119.8800511 375.723200
20356 20365 20363 1 120.0200517 532.790560
20356 20365 20366 1 119.8800511 375.723200
20363 20365 20366 1 119.8800511 375.723200
20367 20368 20369 1 119.8800511 375.723200
20367 20368 20377 1 119.8800511 375.723200
20369 20368 20377 1 120.0200517 532.790560
20368 20369 20370 1 121.3800518 83.010560
20368 20369 20371 1 120.0200517 532.790560
20370 20369 20371 1 121.3800518 83.010560
742 20370 5551 1 109.50000 418.400000
742 20370 5552 1 109.50000 418.400000
742 20370 20369 1 103.70004 836.800000
5551 20370 5552 1 109.50000 418.400000
5551 20370 20369 1 103.70004 836.800000
5552 20370 20369 1 103.70004 836.800000
20369 20371 20372 1 119.8800511 375.723200
20369 20371 20373 1 120.0200517 532.790560
20372 20371 20373 1 119.8800511 375.723200
20371 20373 20374 1 119.8800511 375.723200
20371 20373 20375 1 120.0200517 532.790560
20374 20373 20375 1 119.8800511 375.723200
20373 20375 20376 1 119.8800511 375.723200
20373 20375 20377 1 120.0200517 532.790560
20376 20375 20377 1 119.8800511 375.723200
20368 20377 20375 1 120.0200517 532.790560
20368 20377 20378 1 119.8800511 375.723200
20375 20377 20378 1 119.8800511 375.723200
20379 20380 20381 1 119.8800511 375.723200
20379 20380 20389 1 119.8800511 375.723200
20381 20380 20389 1 120.0200517 532.790560
20380 20381 20382 1 121.3800518 83.010560
20380 20381 20383 1 120.0200517 532.790560
20382 20381 20383 1 121.3800518 83.010560
1329 20382 1330 1 109.50000 418.400000
1329 20382 2716 1 109.50000 418.400000
1329 20382 20381 1 103.70004 836.800000
1330 20382 2716 1 109.50000 418.400000
1330 20382 20381 1 103.70004 836.800000
2716 20382 20381 1 103.70004 836.800000
20381 20383 20384 1 119.8800511 375.723200
20381 20383 20385 1 120.0200517 532.790560
20384 20383 20385 1 119.8800511 375.723200
20383 20385 20386 1 119.8800511 375.723200
20383 20385 20387 1 120.0200517 532.790560
20386 20385 20387 1 119.8800511 375.723200
20385 20387 20388 1 119.8800511 375.723200
20385 20387 20389 1 120.0200517 532.790560
20388 20387 20389 1 119.8800511 375.723200
20380 20389 20387 1 120.0200517 532.790560
20380 20389 20390 1 119.8800511 375.723200
20387 20389 20390 1 119.8800511 375.723200
20391 20392 20393 1 119.8800511 375.723200
20391 20392 20401 1 119.8800511 375.723200
20393 20392 20401 1 120.0200517 532.790560
20392 20393 20394 1 121.3800518 83.010560
20392 20393 20395 1 120.0200517 532.790560
20394 20393 20395 1 121.3800518 83.010560
3847 20394 5572 1 109.50000 418.400000
3847 20394 5573 1 109.50000 418.400000
3847 20394 20393 1 103.70004 836.800000
5572 20394 5573 1 109.50000 418.400000
5572 20394 20393 1 103.70004 836.800000
5573 20394 20393 1 103.70004 836.800000
20393 20395 20396 1 119.8800511 375.723200
20393 20395 20397 1 120.0200517 532.790560
20396 20395 20397 1 119.8800511 375.723200
20395 20397 20398 1 119.8800511 375.723200
20395 20397 20399 1 120.0200517 532.790560
20398 20397 20399 1 119.8800511 375.723200
20397 20399 20400 1 119.8800511 375.723200
20397 20399 20401 1 120.0200517 532.790560
20400 20399 20401 1 119.8800511 375.723200
20392 20401 20399 1 120.0200517 532.790560
20392 20401 20402 1 119.8800511 375.723200
20399 20401 20402 1 119.8800511 375.723200
20403 20404 20405 1 119.8800511 375.723200
20403 20404 20413 1 119.8800511 375.723200
20405 20404 20413 1 120.0200517 532.790560
20404 20405 20406 1 121.3800518 83.010560
20404 20405 20407 1 120.0200517 532.790560
20406 20405 20407 1 121.3800518 83.010560
2431 20406 5578 1 109.50000 418.400000
2431 20406 11237 1 109.50000 418.400000
2431 20406 20405 1 103.70004 836.800000
5578 20406 11237 1 109.50000 418.400000
5578 20406 20405 1 103.70004 836.800000
11237 20406 20405 1 103.70004 836.800000
20405 20407 20408 1 119.8800511 375.723200
20405 20407 20409 1 120.0200517 532.790560
20408 20407 20409 1 119.8800511 375.723200
20407 20409 20410 1 119.8800511 375.723200
20407 20409 20411 1 120.0200517 532.790560
20410 20409 20411 1 119.8800511 375.723200
20409 20411 20412 1 119.8800511 375.723200
20409 20411 20413 1 120.0200517 532.790560
20412 20411 20413 1 119.8800511 375.723200
20404 20413 20411 1 120.0200517 532.790560
20404 20413 20414 1 119.8800511 375.723200
20411 20413 20414 1 119.8800511 375.723200
20415 20416 20417 1 119.8800511 375.723200
20415 20416 20425 1 119.8800511 375.723200
20417 20416 20425 1 120.0200517 532.790560
20416 20417 20418 1 121.3800518 83.010560
20416 20417 20419 1 120.0200517 532.790560
20418 20417 20419 1 121.3800518 83.010560
5506 20418 5579 1 109.50000 418.400000
5506 20418 5581 1 109.50000 418.400000
5506 20418 20417 1 103.70004 836.800000
5579 20418 5581 1 109.50000 418.400000
5579 20418 20417 1 103.70004 836.800000
5581 20418 20417 1 103.70004 836.800000
20417 20419 20420 1 119.8800511 375.723200
20417 20419 20421 1 120.0200517 532.790560
20420 20419 20421 1 119.8800511 375.723200
20419 20421 20422 1 119.8800511 375.723200
20419 20421 20423 1 120.0200517 532.790560
20422 20421 20423 1 119.8800511 375.723200
20421 20423 20424 1 119.8800511 375.723200
20421 20423 20425 1 120.0200517 532.790560
20424 20423 20425 1 119.8800511 375.723200
20416 20425 20423 1 120.0200517 532.790560
20416 20425 20426 1 119.8800511 375.723200
20423 20425 20426 1 119.8800511 375.723200
20427 20428 20429 1 119.8800511 375.723200
20427 20428 20437 1 119.8800511 375.723200
20429 20428 20437 1 120.0200517 532.790560
20428 20429 20430 1 121.3800518 83.010560
20428 20429 20431 1 120.0200517 532.790560
20430 20429 20431 1 121.3800518 83.010560
4184 20430 5630 1 109.50000 418.400000
4184 20430 7614 1 109.50000 418.400000
4184 20430 20429 1 103.70004 836.800000
5630 20430 7614 1 109.50000 418.400000
5630 20430 20429 1 103.70004 836.800000
7614 20430 20429 1 103.70004 836.800000
20429 20431 20432 1 119.8800511 375.723200
20429 20431 20433 1 120.0200517 532.790560
20432 20431 20433 1 119.8800511 375.723200
20431 20433 20434 1 119.8800511 375.723200
20431 20433 20435 1 120.0200517 532.790560
20434 20433 20435 1 119.8800511 375.723200
20433 20435 20436 1 119.8800511 375.723200
20433 20435 20437 1 120.0200517 532.790560
20436 20435 20437 1 119.8800511 375.723200
20428 20437 20435 1 120.0200517 532.790560
20428 20437 20438 1 119.8800511 375.723200
20435 20437 20438 1 119.8800511 375.723200
20439 20440 20441 1 119.8800511 375.723200
20439 20440 20449 1 119.8800511 375.723200
20441 20440 20449 1 120.0200517 532.790560
20440 20441 20442 1 121.3800518 83.010560
20440 20441 20443 1 120.0200517 532.790560
20442 20441 20443 1 121.3800518 83.010560
1703 20442 5713 1 109.50000 418.400000
1703 20442 5714 1 109.50000 418.400000
1703 20442 20441 1 103.70004 836.800000
5713 20442 5714 1 109.50000 418.400000
5713 20442 20441 1 103.70004 836.800000
5714 20442 20441 1 103.70004 836.800000
20441 20443 20444 1 119.8800511 375.723200
20441 20443 20445 1 120.0200517 532.790560
20444 20443 20445 1 119.8800511 375.723200
20443 20445 20446 1 119.8800511 375.723200
20443 20445 20447 1 120.0200517 532.790560
20446 20445 20447 1 119.8800511 375.723200
20445 20447 20448 1 119.8800511 375.723200
20445 20447 20449 1 120.0200517 532.790560
20448 20447 20449 1 119.8800511 375.723200
20440 20449 20447 1 120.0200517 532.790560
20440 20449 20450 1 119.8800511 375.723200
20447 20449 20450 1 119.8800511 375.723200
20451 20452 20453 1 119.8800511 375.723200
20451 20452 20461 1 119.8800511 375.723200
20453 20452 20461 1 120.0200517 532.790560
20452 20453 20454 1 121.3800518 83.010560
20452 20453 20455 1 120.0200517 532.790560
20454 20453 20455 1 121.3800518 83.010560
5715 20454 5716 1 109.50000 418.400000
5715 20454 5717 1 109.50000 418.400000
5715 20454 20453 1 103.70004 836.800000
5716 20454 5717 1 109.50000 418.400000
5716 20454 20453 1 103.70004 836.800000
5717 20454 20453 1 103.70004 836.800000
20453 20455 20456 1 119.8800511 375.723200
20453 20455 20457 1 120.0200517 532.790560
20456 20455 20457 1 119.8800511 375.723200
20455 20457 20458 1 119.8800511 375.723200
20455 20457 20459 1 120.0200517 532.790560
20458 20457 20459 1 119.8800511 375.723200
20457 20459 20460 1 119.8800511 375.723200
20457 20459 20461 1 120.0200517 532.790560
20460 20459 20461 1 119.8800511 375.723200
20452 20461 20459 1 120.0200517 532.790560
20452 20461 20462 1 119.8800511 375.723200
20459 20461 20462 1 119.8800511 375.723200
20463 20464 20465 1 119.8800511 375.723200
20463 20464 20473 1 119.8800511 375.723200
20465 20464 20473 1 120.0200517 532.790560
20464 20465 20466 1 121.3800518 83.010560
20464 20465 20467 1 120.0200517 532.790560
20466 20465 20467 1 121.3800518 83.010560
5725 20466 5726 1 109.50000 418.400000
5725 20466 5727 1 109.50000 418.400000
5725 20466 20465 1 103.70004 836.800000
5726 20466 5727 1 109.50000 418.400000
5726 20466 20465 1 103.70004 836.800000
5727 20466 20465 1 103.70004 836.800000
20465 20467 20468 1 119.8800511 375.723200
20465 20467 20469 1 120.0200517 532.790560
20468 20467 20469 1 119.8800511 375.723200
20467 20469 20470 1 119.8800511 375.723200
20467 20469 20471 1 120.0200517 532.790560
20470 20469 20471 1 119.8800511 375.723200
20469 20471 20472 1 119.8800511 375.723200
20469 20471 20473 1 120.0200517 532.790560
20472 20471 20473 1 119.8800511 375.723200
20464 20473 20471 1 120.0200517 532.790560
20464 20473 20474 1 119.8800511 375.723200
20471 20473 20474 1 119.8800511 375.723200
20475 20476 20477 1 119.8800511 375.723200
20475 20476 20485 1 119.8800511 375.723200
20477 20476 20485 1 120.0200517 532.790560
20476 20477 20478 1 121.3800518 83.010560
20476 20477 20479 1 120.0200517 532.790560
20478 20477 20479 1 121.3800518 83.010560
4338 20478 5737 1 109.50000 418.400000
4338 20478 11238 1 109.50000 418.400000
4338 20478 20477 1 103.70004 836.800000
5737 20478 11238 1 109.50000 418.400000
5737 20478 20477 1 103.70004 836.800000
11238 20478 20477 1 103.70004 836.800000
20477 20479 20480 1 119.8800511 375.723200
20477 20479 20481 1 120.0200517 532.790560
20480 20479 20481 1 119.8800511 375.723200
20479 20481 20482 1 119.8800511 375.723200
20479 20481 20483 1 120.0200517 532.790560
20482 20481 20483 1 119.8800511 375.723200
20481 20483 20484 1 119.8800511 375.723200
20481 20483 20485 1 120.0200517 532.790560
20484 20483 20485 1 119.8800511 375.723200
20476 20485 20483 1 120.0200517 532.790560
20476 20485 20486 1 119.8800511 375.723200
20483 20485 20486 1 119.8800511 375.723200
20487 20488 20489 1 119.8800511 375.723200
20487 20488 20497 1 119.8800511 375.723200
20489 20488 20497 1 120.0200517 532.790560
20488 20489 20490 1 121.3800518 83.010560
20488 20489 20491 1 120.0200517 532.790560
20490 20489 20491 1 121.3800518 83.010560
5105 20490 5751 1 109.50000 418.400000
5105 20490 5752 1 109.50000 418.400000
5105 20490 20489 1 103.70004 836.800000
5751 20490 5752 1 109.50000 418.400000
5751 20490 20489 1 103.70004 836.800000
5752 20490 20489 1 103.70004 836.800000
20489 20491 20492 1 119.8800511 375.723200
20489 20491 20493 1 120.0200517 532.790560
20492 20491 20493 1 119.8800511 375.723200
20491 20493 20494 1 119.8800511 375.723200
20491 20493 20495 1 120.0200517 532.790560
20494 20493 20495 1 119.8800511 375.723200
20493 20495 20496 1 119.8800511 375.723200
20493 20495 20497 1 120.0200517 532.790560
20496 20495 20497 1 119.8800511 375.723200
20488 20497 20495 1 120.0200517 532.790560
20488 20497 20498 1 119.8800511 375.723200
20495 20497 20498 1 119.8800511 375.723200
20499 20500 20501 1 119.8800511 375.723200
20499 20500 20509 1 119.8800511 375.723200
20501 20500 20509 1 120.0200517 532.790560
20500 20501 20502 1 121.3800518 83.010560
20500 20501 20503 1 120.0200517 532.790560
20502 20501 20503 1 121.3800518 83.010560
5774 20502 5775 1 109.50000 418.400000
5774 20502 5776 1 109.50000 418.400000
5774 20502 20501 1 103.70004 836.800000
5775 20502 5776 1 109.50000 418.400000
5775 20502 20501 1 103.70004 836.800000
5776 20502 20501 1 103.70004 836.800000
20501 20503 20504 1 119.8800511 375.723200
20501 20503 20505 1 120.0200517 532.790560
20504 20503 20505 1 119.8800511 375.723200
20503 20505 20506 1 119.8800511 375.723200
20503 20505 20507 1 120.0200517 532.790560
20506 20505 20507 1 119.8800511 375.723200
20505 20507 20508 1 119.8800511 375.723200
20505 20507 20509 1 120.0200517 532.790560
20508 20507 20509 1 119.8800511 375.723200
20500 20509 20507 1 120.0200517 532.790560
20500 20509 20510 1 119.8800511 375.723200
20507 20509 20510 1 119.8800511 375.723200
20511 20512 20513 1 119.8800511 375.723200
20511 20512 20521 1 119.8800511 375.723200
20513 20512 20521 1 120.0200517 532.790560
20512 20513 20514 1 121.3800518 83.010560
20512 20513 20515 1 120.0200517 532.790560
20514 20513 20515 1 121.3800518 83.010560
980 20514 4224 1 109.50000 418.400000
980 20514 5829 1 109.50000 418.400000
980 20514 20513 1 103.70004 836.800000
4224 20514 5829 1 109.50000 418.400000
4224 20514 20513 1 103.70004 836.800000
5829 20514 20513 1 103.70004 836.800000
20513 20515 20516 1 119.8800511 375.723200
20513 20515 20517 1 120.0200517 532.790560
20516 20515 20517 1 119.8800511 375.723200
20515 20517 20518 1 119.8800511 375.723200
20515 20517 20519 1 120.0200517 532.790560
20518 20517 20519 1 119.8800511 375.723200
20517 20519 20520 1 119.8800511 375.723200
20517 20519 20521 1 120.0200517 532.790560
20520 20519 20521 1 119.8800511 375.723200
20512 20521 20519 1 120.0200517 532.790560
20512 20521 20522 1 119.8800511 375.723200
20519 20521 20522 1 119.8800511 375.723200
20523 20524 20525 1 119.8800511 375.723200
20523 20524 20533 1 119.8800511 375.723200
20525 20524 20533 1 120.0200517 532.790560
20524 20525 20526 1 121.3800518 83.010560
20524 20525 20527 1 120.0200517 532.790560
20526 20525 20527 1 121.3800518 83.010560
4111 20526 5830 1 109.50000 418.400000
4111 20526 11239 1 109.50000 418.400000
4111 20526 20525 1 103.70004 836.800000
5830 20526 11239 1 109.50000 418.400000
5830 20526 20525 1 103.70004 836.800000
11239 20526 20525 1 103.70004 836.800000
20525 20527 20528 1 119.8800511 375.723200
20525 20527 20529 1 120.0200517 532.790560
20528 20527 20529 1 119.8800511 375.723200
20527 20529 20530 1 119.8800511 375.723200
20527 20529 20531 1 120.0200517 532.790560
20530 20529 20531 1 119.8800511 375.723200
20529 20531 20532 1 119.8800511 375.723200
20529 20531 20533 1 120.0200517 532.790560
20532 20531 20533 1 119.8800511 375.723200
20524 20533 20531 1 120.0200517 532.790560
20524 20533 20534 1 119.8800511 375.723200
20531 20533 20534 1 119.8800511 375.723200
20535 20536 20537 1 119.8800511 375.723200
20535 20536 20545 1 119.8800511 375.723200
20537 20536 20545 1 120.0200517 532.790560
20536 20537 20538 1 121.3800518 83.010560
20536 20537 20539 1 120.0200517 532.790560
20538 20537 20539 1 121.3800518 83.010560
5832 20538 5833 1 109.50000 418.400000
5832 20538 5834 1 109.50000 418.400000
5832 20538 20537 1 103.70004 836.800000
5833 20538 5834 1 109.50000 418.400000
5833 20538 20537 1 103.70004 836.800000
5834 20538 20537 1 103.70004 836.800000
20537 20539 20540 1 119.8800511 375.723200
20537 20539 20541 1 120.0200517 532.790560
20540 20539 20541 1 119.8800511 375.723200
20539 20541 20542 1 119.8800511 375.723200
20539 20541 20543 1 120.0200517 532.790560
20542 20541 20543 1 119.8800511 375.723200
20541 20543 20544 1 119.8800511 375.723200
20541 20543 20545 1 120.0200517 532.790560
20544 20543 20545 1 119.8800511 375.723200
20536 20545 20543 1 120.0200517 532.790560
20536 20545 20546 1 119.8800511 375.723200
20543 20545 20546 1 119.8800511 375.723200
20547 20548 20549 1 119.8800511 375.723200
20547 20548 20557 1 119.8800511 375.723200
20549 20548 20557 1 120.0200517 532.790560
20548 20549 20550 1 121.3800518 83.010560
20548 20549 20551 1 120.0200517 532.790560
20550 20549 20551 1 121.3800518 83.010560
864 20550 2451 1 109.50000 418.400000
864 20550 5839 1 109.50000 418.400000
864 20550 20549 1 103.70004 836.800000
2451 20550 5839 1 109.50000 418.400000
2451 20550 20549 1 103.70004 836.800000
5839 20550 20549 1 103.70004 836.800000
20549 20551 20552 1 119.8800511 375.723200
20549 20551 20553 1 120.0200517 532.790560
20552 20551 20553 1 119.8800511 375.723200
20551 20553 20554 1 119.8800511 375.723200
20551 20553 20555 1 120.0200517 532.790560
20554 20553 20555 1 119.8800511 375.723200
20553 20555 20556 1 119.8800511 375.723200
20553 20555 20557 1 120.0200517 532.790560
20556 20555 20557 1 119.8800511 375.723200
20548 20557 20555 1 120.0200517 532.790560
20548 20557 20558 1 119.8800511 375.723200
20555 20557 20558 1 119.8800511 375.723200
20559 20560 20561 1 119.8800511 375.723200
20559 20560 20569 1 119.8800511 375.723200
20561 20560 20569 1 120.0200517 532.790560
20560 20561 20562 1 121.3800518 83.010560
20560 20561 20563 1 120.0200517 532.790560
20562 20561 20563 1 121.3800518 83.010560
3628 20562 5860 1 109.50000 418.400000
3628 20562 10356 1 109.50000 418.400000
3628 20562 20561 1 103.70004 836.800000
5860 20562 10356 1 109.50000 418.400000
5860 20562 20561 1 103.70004 836.800000
10356 20562 20561 1 103.70004 836.800000
20561 20563 20564 1 119.8800511 375.723200
20561 20563 20565 1 120.0200517 532.790560
20564 20563 20565 1 119.8800511 375.723200
20563 20565 20566 1 119.8800511 375.723200
20563 20565 20567 1 120.0200517 532.790560
20566 20565 20567 1 119.8800511 375.723200
20565 20567 20568 1 119.8800511 375.723200
20565 20567 20569 1 120.0200517 532.790560
20568 20567 20569 1 119.8800511 375.723200
20560 20569 20567 1 120.0200517 532.790560
20560 20569 20570 1 119.8800511 375.723200
20567 20569 20570 1 119.8800511 375.723200
20571 20572 20573 1 119.8800511 375.723200
20571 20572 20581 1 119.8800511 375.723200
20573 20572 20581 1 120.0200517 532.790560
20572 20573 20574 1 121.3800518 83.010560
20572 20573 20575 1 120.0200517 532.790560
20574 20573 20575 1 121.3800518 83.010560
5892 20574 5893 1 109.50000 418.400000
5892 20574 5894 1 109.50000 418.400000
5892 20574 20573 1 103.70004 836.800000
5893 20574 5894 1 109.50000 418.400000
5893 20574 20573 1 103.70004 836.800000
5894 20574 20573 1 103.70004 836.800000
20573 20575 20576 1 119.8800511 375.723200
20573 20575 20577 1 120.0200517 532.790560
20576 20575 20577 1 119.8800511 375.723200
20575 20577 20578 1 119.8800511 375.723200
20575 20577 20579 1 120.0200517 532.790560
20578 20577 20579 1 119.8800511 375.723200
20577 20579 20580 1 119.8800511 375.723200
20577 20579 20581 1 120.0200517 532.790560
20580 20579 20581 1 119.8800511 375.723200
20572 20581 20579 1 120.0200517 532.790560
20572 20581 20582 1 119.8800511 375.723200
20579 20581 20582 1 119.8800511 375.723200
20583 20584 20585 1 119.8800511 375.723200
20583 20584 20593 1 119.8800511 375.723200
20585 20584 20593 1 120.0200517 532.790560
20584 20585 20586 1 121.3800518 83.010560
20584 20585 20587 1 120.0200517 532.790560
20586 20585 20587 1 121.3800518 83.010560
4650 20586 5919 1 109.50000 418.400000
4650 20586 11240 1 109.50000 418.400000
4650 20586 20585 1 103.70004 836.800000
5919 20586 11240 1 109.50000 418.400000
5919 20586 20585 1 103.70004 836.800000
11240 20586 20585 1 103.70004 836.800000
20585 20587 20588 1 119.8800511 375.723200
20585 20587 20589 1 120.0200517 532.790560
20588 20587 20589 1 119.8800511 375.723200
20587 20589 20590 1 119.8800511 375.723200
20587 20589 20591 1 120.0200517 532.790560
20590 20589 20591 1 119.8800511 375.723200
20589 20591 20592 1 119.8800511 375.723200
20589 20591 20593 1 120.0200517 532.790560
20592 20591 20593 1 119.8800511 375.723200
20584 20593 20591 1 120.0200517 532.790560
20584 20593 20594 1 119.8800511 375.723200
20591 20593 20594 1 119.8800511 375.723200
20595 20596 20597 1 119.8800511 375.723200
20595 20596 20605 1 119.8800511 375.723200
20597 20596 20605 1 120.0200517 532.790560
20596 20597 20598 1 121.3800518 83.010560
20596 20597 20599 1 120.0200517 532.790560
20598 20597 20599 1 121.3800518 83.010560
2420 20598 5964 1 109.50000 418.400000
2420 20598 5965 1 109.50000 418.400000
2420 20598 20597 1 103.70004 836.800000
5964 20598 5965 1 109.50000 418.400000
5964 20598 20597 1 103.70004 836.800000
5965 20598 20597 1 103.70004 836.800000
20597 20599 20600 1 119.8800511 375.723200
20597 20599 20601 1 120.0200517 532.790560
20600 20599 20601 1 119.8800511 375.723200
20599 20601 20602 1 119.8800511 375.723200
20599 20601 20603 1 120.0200517 532.790560
20602 20601 20603 1 119.8800511 375.723200
20601 20603 20604 1 119.8800511 375.723200
20601 20603 20605 1 120.0200517 532.790560
20604 20603 20605 1 119.8800511 375.723200
20596 20605 20603 1 120.0200517 532.790560
20596 20605 20606 1 119.8800511 375.723200
20603 20605 20606 1 119.8800511 375.723200
20607 20608 20609 1 119.8800511 375.723200
20607 20608 20617 1 119.8800511 375.723200
20609 20608 20617 1 120.0200517 532.790560
20608 20609 20610 1 121.3800518 83.010560
20608 20609 20611 1 120.0200517 532.790560
20610 20609 20611 1 121.3800518 83.010560
3358 20610 5974 1 109.50000 418.400000
3358 20610 5975 1 109.50000 418.400000
3358 20610 20609 1 103.70004 836.800000
5974 20610 5975 1 109.50000 418.400000
5974 20610 20609 1 103.70004 836.800000
5975 20610 20609 1 103.70004 836.800000
20609 20611 20612 1 119.8800511 375.723200
20609 20611 20613 1 120.0200517 532.790560
20612 20611 20613 1 119.8800511 375.723200
20611 20613 20614 1 119.8800511 375.723200
20611 20613 20615 1 120.0200517 532.790560
20614 20613 20615 1 119.8800511 375.723200
20613 20615 20616 1 119.8800511 375.723200
20613 20615 20617 1 120.0200517 532.790560
20616 20615 20617 1 119.8800511 375.723200
20608 20617 20615 1 120.0200517 532.790560
20608 20617 20618 1 119.8800511 375.723200
20615 20617 20618 1 119.8800511 375.723200
20619 20620 20621 1 119.8800511 375.723200
20619 20620 20629 1 119.8800511 375.723200
20621 20620 20629 1 120.0200517 532.790560
20620 20621 20622 1 121.3800518 83.010560
20620 20621 20623 1 120.0200517 532.790560
20622 20621 20623 1 121.3800518 83.010560
1154 20622 5979 1 109.50000 418.400000
1154 20622 5980 1 109.50000 418.400000
1154 20622 20621 1 103.70004 836.800000
5979 20622 5980 1 109.50000 418.400000
5979 20622 20621 1 103.70004 836.800000
5980 20622 20621 1 103.70004 836.800000
20621 20623 20624 1 119.8800511 375.723200
20621 20623 20625 1 120.0200517 532.790560
20624 20623 20625 1 119.8800511 375.723200
20623 20625 20626 1 119.8800511 375.723200
20623 20625 20627 1 120.0200517 532.790560
20626 20625 20627 1 119.8800511 375.723200
20625 20627 20628 1 119.8800511 375.723200
20625 20627 20629 1 120.0200517 532.790560
20628 20627 20629 1 119.8800511 375.723200
20620 20629 20627 1 120.0200517 532.790560
20620 20629 20630 1 119.8800511 375.723200
20627 20629 20630 1 119.8800511 375.723200
20631 20632 20633 1 119.8800511 375.723200
20631 20632 20641 1 119.8800511 375.723200
20633 20632 20641 1 120.0200517 532.790560
20632 20633 20634 1 121.3800518 83.010560
20632 20633 20635 1 120.0200517 532.790560
20634 20633 20635 1 121.3800518 83.010560
3604 20634 5991 1 109.50000 418.400000
3604 20634 5992 1 109.50000 418.400000
3604 20634 20633 1 103.70004 836.800000
5991 20634 5992 1 109.50000 418.400000
5991 20634 20633 1 103.70004 836.800000
5992 20634 20633 1 103.70004 836.800000
20633 20635 20636 1 119.8800511 375.723200
20633 20635 20637 1 120.0200517 532.790560
20636 20635 20637 1 119.8800511 375.723200
20635 20637 20638 1 119.8800511 375.723200
20635 20637 20639 1 120.0200517 532.790560
20638 20637 20639 1 119.8800511 375.723200
20637 20639 20640 1 119.8800511 375.723200
20637 20639 20641 1 120.0200517 532.790560
20640 20639 20641 1 119.8800511 375.723200
20632 20641 20639 1 120.0200517 532.790560
20632 20641 20642 1 119.8800511 375.723200
20639 20641 20642 1 119.8800511 375.723200
20643 20644 20645 1 119.8800511 375.723200
20643 20644 20653 1 119.8800511 375.723200
20645 20644 20653 1 120.0200517 532.790560
20644 20645 20646 1 121.3800518 83.010560
20644 20645 20647 1 120.0200517 532.790560
20646 20645 20647 1 121.3800518 83.010560
3603 20646 5997 1 109.50000 418.400000
3603 20646 5998 1 109.50000 418.400000
3603 20646 20645 1 103.70004 836.800000
5997 20646 5998 1 109.50000 418.400000
5997 20646 20645 1 103.70004 836.800000
5998 20646 20645 1 103.70004 836.800000
20645 20647 20648 1 119.8800511 375.723200
20645 20647 20649 1 120.0200517 532.790560
20648 20647 20649 1 119.8800511 375.723200
20647 20649 20650 1 119.8800511 375.723200
20647 20649 20651 1 120.0200517 532.790560
20650 20649 20651 1 119.8800511 375.723200
20649 20651 20652 1 119.8800511 375.723200
20649 20651 20653 1 120.0200517 532.790560
20652 20651 20653 1 119.8800511 375.723200
20644 20653 20651 1 120.0200517 532.790560
20644 20653 20654 1 119.8800511 375.723200
20651 20653 20654 1 119.8800511 375.723200
20655 20656 20657 1 119.8800511 375.723200
20655 20656 20665 1 119.8800511 375.723200
20657 20656 20665 1 120.0200517 532.790560
20656 20657 20658 1 121.3800518 83.010560
20656 20657 20659 1 120.0200517 532.790560
20658 20657 20659 1 121.3800518 83.010560
5527 20658 6000 1 109.50000 418.400000
5527 20658 6001 1 109.50000 418.400000
5527 20658 20657 1 103.70004 836.800000
6000 20658 6001 1 109.50000 418.400000
6000 20658 20657 1 103.70004 836.800000
6001 20658 20657 1 103.70004 836.800000
20657 20659 20660 1 119.8800511 375.723200
20657 20659 20661 1 120.0200517 532.790560
20660 20659 20661 1 119.8800511 375.723200
20659 20661 20662 1 119.8800511 375.723200
20659 20661 20663 1 120.0200517 532.790560
20662 20661 20663 1 119.8800511 375.723200
20661 20663 20664 1 119.8800511 375.723200
20661 20663 20665 1 120.0200517 532.790560
20664 20663 20665 1 119.8800511 375.723200
20656 20665 20663 1 120.0200517 532.790560
20656 20665 20666 1 119.8800511 375.723200
20663 20665 20666 1 119.8800511 375.723200
20667 20668 20669 1 119.8800511 375.723200
20667 20668 20677 1 119.8800511 375.723200
20669 20668 20677 1 120.0200517 532.790560
20668 20669 20670 1 121.3800518 83.010560
20668 20669 20671 1 120.0200517 532.790560
20670 20669 20671 1 121.3800518 83.010560
1685 20670 6005 1 109.50000 418.400000
1685 20670 6006 1 109.50000 418.400000
1685 20670 20669 1 103.70004 836.800000
6005 20670 6006 1 109.50000 418.400000
6005 20670 20669 1 103.70004 836.800000
6006 20670 20669 1 103.70004 836.800000
20669 20671 20672 1 119.8800511 375.723200
20669 20671 20673 1 120.0200517 532.790560
20672 20671 20673 1 119.8800511 375.723200
20671 20673 20674 1 119.8800511 375.723200
20671 20673 20675 1 120.0200517 532.790560
20674 20673 20675 1 119.8800511 375.723200
20673 20675 20676 1 119.8800511 375.723200
20673 20675 20677 1 120.0200517 532.790560
20676 20675 20677 1 119.8800511 375.723200
20668 20677 20675 1 120.0200517 532.790560
20668 20677 20678 1 119.8800511 375.723200
20675 20677 20678 1 119.8800511 375.723200
20679 20680 20681 1 119.8800511 375.723200
20679 20680 20689 1 119.8800511 375.723200
20681 20680 20689 1 120.0200517 532.790560
20680 20681 20682 1 121.3800518 83.010560
20680 20681 20683 1 120.0200517 532.790560
20682 20681 20683 1 121.3800518 83.010560
1148 20682 6026 1 109.50000 418.400000
1148 20682 6027 1 109.50000 418.400000
1148 20682 20681 1 103.70004 836.800000
6026 20682 6027 1 109.50000 418.400000
6026 20682 20681 1 103.70004 836.800000
6027 20682 20681 1 103.70004 836.800000
20681 20683 20684 1 119.8800511 375.723200
20681 20683 20685 1 120.0200517 532.790560
20684 20683 20685 1 119.8800511 375.723200
20683 20685 20686 1 119.8800511 375.723200
20683 20685 20687 1 120.0200517 532.790560
20686 20685 20687 1 119.8800511 375.723200
20685 20687 20688 1 119.8800511 375.723200
20685 20687 20689 1 120.0200517 532.790560
20688 20687 20689 1 119.8800511 375.723200
20680 20689 20687 1 120.0200517 532.790560
20680 20689 20690 1 119.8800511 375.723200
20687 20689 20690 1 119.8800511 375.723200
20691 20692 20693 1 119.8800511 375.723200
20691 20692 20701 1 119.8800511 375.723200
20693 20692 20701 1 120.0200517 532.790560
20692 20693 20694 1 121.3800518 83.010560
20692 20693 20695 1 120.0200517 532.790560
20694 20693 20695 1 121.3800518 83.010560
3645 20694 6032 1 109.50000 418.400000
3645 20694 9558 1 109.50000 418.400000
3645 20694 20693 1 103.70004 836.800000
6032 20694 9558 1 109.50000 418.400000
6032 20694 20693 1 103.70004 836.800000
9558 20694 20693 1 103.70004 836.800000
20693 20695 20696 1 119.8800511 375.723200
20693 20695 20697 1 120.0200517 532.790560
20696 20695 20697 1 119.8800511 375.723200
20695 20697 20698 1 119.8800511 375.723200
20695 20697 20699 1 120.0200517 532.790560
20698 20697 20699 1 119.8800511 375.723200
20697 20699 20700 1 119.8800511 375.723200
20697 20699 20701 1 120.0200517 532.790560
20700 20699 20701 1 119.8800511 375.723200
20692 20701 20699 1 120.0200517 532.790560
20692 20701 20702 1 119.8800511 375.723200
20699 20701 20702 1 119.8800511 375.723200
20703 20704 20705 1 119.8800511 375.723200
20703 20704 20713 1 119.8800511 375.723200
20705 20704 20713 1 120.0200517 532.790560
20704 20705 20706 1 121.3800518 83.010560
20704 20705 20707 1 120.0200517 532.790560
20706 20705 20707 1 121.3800518 83.010560
2163 20706 2164 1 109.50000 418.400000
2163 20706 6038 1 109.50000 418.400000
2163 20706 20705 1 103.70004 836.800000
2164 20706 6038 1 109.50000 418.400000
2164 20706 20705 1 103.70004 836.800000
6038 20706 20705 1 103.70004 836.800000
20705 20707 20708 1 119.8800511 375.723200
20705 20707 20709 1 120.0200517 532.790560
20708 20707 20709 1 119.8800511 375.723200
20707 20709 20710 1 119.8800511 375.723200
20707 20709 20711 1 120.0200517 532.790560
20710 20709 20711 1 119.8800511 375.723200
20709 20711 20712 1 119.8800511 375.723200
20709 20711 20713 1 120.0200517 532.790560
20712 20711 20713 1 119.8800511 375.723200
20704 20713 20711 1 120.0200517 532.790560
20704 20713 20714 1 119.8800511 375.723200
20711 20713 20714 1 119.8800511 375.723200
20715 20716 20717 1 119.8800511 375.723200
20715 20716 20725 1 119.8800511 375.723200
20717 20716 20725 1 120.0200517 532.790560
20716 20717 20718 1 121.3800518 83.010560
20716 20717 20719 1 120.0200517 532.790560
20718 20717 20719 1 121.3800518 83.010560
5472 20718 6051 1 109.50000 418.400000
5472 20718 11241 1 109.50000 418.400000
5472 20718 20717 1 103.70004 836.800000
6051 20718 11241 1 109.50000 418.400000
6051 20718 20717 1 103.70004 836.800000
11241 20718 20717 1 103.70004 836.800000
20717 20719 20720 1 119.8800511 375.723200
20717 20719 20721 1 120.0200517 532.790560
20720 20719 20721 1 119.8800511 375.723200
20719 20721 20722 1 119.8800511 375.723200
20719 20721 20723 1 120.0200517 532.790560
20722 20721 20723 1 119.8800511 375.723200
20721 20723 20724 1 119.8800511 375.723200
20721 20723 20725 1 120.0200517 532.790560
20724 20723 20725 1 119.8800511 375.723200
20716 20725 20723 1 120.0200517 532.790560
20716 20725 20726 1 119.8800511 375.723200
20723 20725 20726 1 119.8800511 375.723200
20727 20728 20729 1 119.8800511 375.723200
20727 20728 20737 1 119.8800511 375.723200
20729 20728 20737 1 120.0200517 532.790560
20728 20729 20730 1 121.3800518 83.010560
20728 20729 20731 1 120.0200517 532.790560
20730 20729 20731 1 121.3800518 83.010560
5030 20730 5268 1 109.50000 418.400000
5030 20730 11242 1 109.50000 418.400000
5030 20730 20729 1 103.70004 836.800000
5268 20730 11242 1 109.50000 418.400000
5268 20730 20729 1 103.70004 836.800000
11242 20730 20729 1 103.70004 836.800000
20729 20731 20732 1 119.8800511 375.723200
20729 20731 20733 1 120.0200517 532.790560
20732 20731 20733 1 119.8800511 375.723200
20731 20733 20734 1 119.8800511 375.723200
20731 20733 20735 1 120.0200517 532.790560
20734 20733 20735 1 119.8800511 375.723200
20733 20735 20736 1 119.8800511 375.723200
20733 20735 20737 1 120.0200517 532.790560
20736 20735 20737 1 119.8800511 375.723200
20728 20737 20735 1 120.0200517 532.790560
20728 20737 20738 1 119.8800511 375.723200
20735 20737 20738 1 119.8800511 375.723200
20739 20740 20741 1 119.8800511 375.723200
20739 20740 20749 1 119.8800511 375.723200
20741 20740 20749 1 120.0200517 532.790560
20740 20741 20742 1 121.3800518 83.010560
20740 20741 20743 1 120.0200517 532.790560
20742 20741 20743 1 121.3800518 83.010560
6079 20742 6080 1 109.50000 418.400000
6079 20742 11243 1 109.50000 418.400000
6079 20742 20741 1 103.70004 836.800000
6080 20742 11243 1 109.50000 418.400000
6080 20742 20741 1 103.70004 836.800000
11243 20742 20741 1 103.70004 836.800000
20741 20743 20744 1 119.8800511 375.723200
20741 20743 20745 1 120.0200517 532.790560
20744 20743 20745 1 119.8800511 375.723200
20743 20745 20746 1 119.8800511 375.723200
20743 20745 20747 1 120.0200517 532.790560
20746 20745 20747 1 119.8800511 375.723200
20745 20747 20748 1 119.8800511 375.723200
20745 20747 20749 1 120.0200517 532.790560
20748 20747 20749 1 119.8800511 375.723200
20740 20749 20747 1 120.0200517 532.790560
20740 20749 20750 1 119.8800511 375.723200
20747 20749 20750 1 119.8800511 375.723200
20751 20752 20753 1 119.8800511 375.723200
20751 20752 20761 1 119.8800511 375.723200
20753 20752 20761 1 120.0200517 532.790560
20752 20753 20754 1 121.3800518 83.010560
20752 20753 20755 1 120.0200517 532.790560
20754 20753 20755 1 121.3800518 83.010560
6088 20754 6089 1 109.50000 418.400000
6088 20754 8294 1 109.50000 418.400000
6088 20754 20753 1 103.70004 836.800000
6089 20754 8294 1 109.50000 418.400000
6089 20754 20753 1 103.70004 836.800000
8294 20754 20753 1 103.70004 836.800000
20753 20755 20756 1 119.8800511 375.723200
20753 20755 20757 1 120.0200517 532.790560
20756 20755 20757 1 119.8800511 375.723200
20755 20757 20758 1 119.8800511 375.723200
20755 20757 20759 1 120.0200517 532.790560
20758 20757 20759 1 119.8800511 375.723200
20757 20759 20760 1 119.8800511 375.723200
20757 20759 20761 1 120.0200517 532.790560
20760 20759 20761 1 119.8800511 375.723200
20752 20761 20759 1 120.0200517 532.790560
20752 20761 20762 1 119.8800511 375.723200
20759 20761 20762 1 119.8800511 375.723200
20763 20764 20765 1 119.8800511 375.723200
20763 20764 20773 1 119.8800511 375.723200
20765 20764 20773 1 120.0200517 532.790560
20764 20765 20766 1 121.3800518 83.010560
20764 20765 20767 1 120.0200517 532.790560
20766 20765 20767 1 121.3800518 83.010560
521 20766 523 1 109.50000 418.400000
521 20766 2066 1 109.50000 418.400000
521 20766 20765 1 103.70004 836.800000
523 20766 2066 1 109.50000 418.400000
523 20766 20765 1 103.70004 836.800000
2066 20766 20765 1 103.70004 836.800000
20765 20767 20768 1 119.8800511 375.723200
20765 20767 20769 1 120.0200517 532.790560
20768 20767 20769 1 119.8800511 375.723200
20767 20769 20770 1 119.8800511 375.723200
20767 20769 20771 1 120.0200517 532.790560
20770 20769 20771 1 119.8800511 375.723200
20769 20771 20772 1 119.8800511 375.723200
20769 20771 20773 1 120.0200517 532.790560
20772 20771 20773 1 119.8800511 375.723200
20764 20773 20771 1 120.0200517 532.790560
20764 20773 20774 1 119.8800511 375.723200
20771 20773 20774 1 119.8800511 375.723200
20775 20776 20777 1 119.8800511 375.723200
20775 20776 20785 1 119.8800511 375.723200
20777 20776 20785 1 120.0200517 532.790560
20776 20777 20778 1 121.3800518 83.010560
20776 20777 20779 1 120.0200517 532.790560
20778 20777 20779 1 121.3800518 83.010560
6099 20778 6100 1 109.50000 418.400000
6099 20778 6101 1 109.50000 418.400000
6099 20778 20777 1 103.70004 836.800000
6100 20778 6101 1 109.50000 418.400000
6100 20778 20777 1 103.70004 836.800000
6101 20778 20777 1 103.70004 836.800000
20777 20779 20780 1 119.8800511 375.723200
20777 20779 20781 1 120.0200517 532.790560
20780 20779 20781 1 119.8800511 375.723200
20779 20781 20782 1 119.8800511 375.723200
20779 20781 20783 1 120.0200517 532.790560
20782 20781 20783 1 119.8800511 375.723200
20781 20783 20784 1 119.8800511 375.723200
20781 20783 20785 1 120.0200517 532.790560
20784 20783 20785 1 119.8800511 375.723200
20776 20785 20783 1 120.0200517 532.790560
20776 20785 20786 1 119.8800511 375.723200
20783 20785 20786 1 119.8800511 375.723200
20787 20788 20789 1 119.8800511 375.723200
20787 20788 20797 1 119.8800511 375.723200
20789 20788 20797 1 120.0200517 532.790560
20788 20789 20790 1 121.3800518 83.010560
20788 20789 20791 1 120.0200517 532.790560
20790 20789 20791 1 121.3800518 83.010560
6108 20790 6109 1 109.50000 418.400000
6108 20790 6110 1 109.50000 418.400000
6108 20790 20789 1 103.70004 836.800000
6109 20790 6110 1 109.50000 418.400000
6109 20790 20789 1 103.70004 836.800000
6110 20790 20789 1 103.70004 836.800000
20789 20791 20792 1 119.8800511 375.723200
20789 20791 20793 1 120.0200517 532.790560
20792 20791 20793 1 119.8800511 375.723200
20791 20793 20794 1 119.8800511 375.723200
20791 20793 20795 1 120.0200517 532.790560
20794 20793 20795 1 119.8800511 375.723200
20793 20795 20796 1 119.8800511 375.723200
20793 20795 20797 1 120.0200517 532.790560
20796 20795 20797 1 119.8800511 375.723200
20788 20797 20795 1 120.0200517 532.790560
20788 20797 20798 1 119.8800511 375.723200
20795 20797 20798 1 119.8800511 375.723200
20799 20800 20801 1 119.8800511 375.723200
20799 20800 20809 1 119.8800511 375.723200
20801 20800 20809 1 120.0200517 532.790560
20800 20801 20802 1 121.3800518 83.010560
20800 20801 20803 1 120.0200517 532.790560
20802 20801 20803 1 121.3800518 83.010560
2620 20802 6148 1 109.50000 418.400000
2620 20802 6149 1 109.50000 418.400000
2620 20802 20801 1 103.70004 836.800000
6148 20802 6149 1 109.50000 418.400000
6148 20802 20801 1 103.70004 836.800000
6149 20802 20801 1 103.70004 836.800000
20801 20803 20804 1 119.8800511 375.723200
20801 20803 20805 1 120.0200517 532.790560
20804 20803 20805 1 119.8800511 375.723200
20803 20805 20806 1 119.8800511 375.723200
20803 20805 20807 1 120.0200517 532.790560
20806 20805 20807 1 119.8800511 375.723200
20805 20807 20808 1 119.8800511 375.723200
20805 20807 20809 1 120.0200517 532.790560
20808 20807 20809 1 119.8800511 375.723200
20800 20809 20807 1 120.0200517 532.790560
20800 20809 20810 1 119.8800511 375.723200
20807 20809 20810 1 119.8800511 375.723200
20811 20812 20813 1 119.8800511 375.723200
20811 20812 20821 1 119.8800511 375.723200
20813 20812 20821 1 120.0200517 532.790560
20812 20813 20814 1 121.3800518 83.010560
20812 20813 20815 1 120.0200517 532.790560
20814 20813 20815 1 121.3800518 83.010560
1369 20814 6163 1 109.50000 418.400000
1369 20814 6164 1 109.50000 418.400000
1369 20814 20813 1 103.70004 836.800000
6163 20814 6164 1 109.50000 418.400000
6163 20814 20813 1 103.70004 836.800000
6164 20814 20813 1 103.70004 836.800000
20813 20815 20816 1 119.8800511 375.723200
20813 20815 20817 1 120.0200517 532.790560
20816 20815 20817 1 119.8800511 375.723200
20815 20817 20818 1 119.8800511 375.723200
20815 20817 20819 1 120.0200517 532.790560
20818 20817 20819 1 119.8800511 375.723200
20817 20819 20820 1 119.8800511 375.723200
20817 20819 20821 1 120.0200517 532.790560
20820 20819 20821 1 119.8800511 375.723200
20812 20821 20819 1 120.0200517 532.790560
20812 20821 20822 1 119.8800511 375.723200
20819 20821 20822 1 119.8800511 375.723200
20823 20824 20825 1 119.8800511 375.723200
20823 20824 20833 1 119.8800511 375.723200
20825 20824 20833 1 120.0200517 532.790560
20824 20825 20826 1 121.3800518 83.010560
20824 20825 20827 1 120.0200517 532.790560
20826 20825 20827 1 121.3800518 83.010560
6038 20826 6173 1 109.50000 418.400000
6038 20826 6174 1 109.50000 418.400000
6038 20826 20825 1 103.70004 836.800000
6173 20826 6174 1 109.50000 418.400000
6173 20826 20825 1 103.70004 836.800000
6174 20826 20825 1 103.70004 836.800000
20825 20827 20828 1 119.8800511 375.723200
20825 20827 20829 1 120.0200517 532.790560
20828 20827 20829 1 119.8800511 375.723200
20827 20829 20830 1 119.8800511 375.723200
20827 20829 20831 1 120.0200517 532.790560
20830 20829 20831 1 119.8800511 375.723200
20829 20831 20832 1 119.8800511 375.723200
20829 20831 20833 1 120.0200517 532.790560
20832 20831 20833 1 119.8800511 375.723200
20824 20833 20831 1 120.0200517 532.790560
20824 20833 20834 1 119.8800511 375.723200
20831 20833 20834 1 119.8800511 375.723200
20835 20836 20837 1 119.8800511 375.723200
20835 20836 20845 1 119.8800511 375.723200
20837 20836 20845 1 120.0200517 532.790560
20836 20837 20838 1 121.3800518 83.010560
20836 20837 20839 1 120.0200517 532.790560
20838 20837 20839 1 121.3800518 83.010560
221 20838 5234 1 109.50000 418.400000
221 20838 6192 1 109.50000 418.400000
221 20838 20837 1 103.70004 836.800000
5234 20838 6192 1 109.50000 418.400000
5234 20838 20837 1 103.70004 836.800000
6192 20838 20837 1 103.70004 836.800000
20837 20839 20840 1 119.8800511 375.723200
20837 20839 20841 1 120.0200517 532.790560
20840 20839 20841 1 119.8800511 375.723200
20839 20841 20842 1 119.8800511 375.723200
20839 20841 20843 1 120.0200517 532.790560
20842 20841 20843 1 119.8800511 375.723200
20841 20843 20844 1 119.8800511 375.723200
20841 20843 20845 1 120.0200517 532.790560
20844 20843 20845 1 119.8800511 375.723200
20836 20845 20843 1 120.0200517 532.790560
20836 20845 20846 1 119.8800511 375.723200
20843 20845 20846 1 119.8800511 375.723200
20847 20848 20849 1 119.8800511 375.723200
20847 20848 20857 1 119.8800511 375.723200
20849 20848 20857 1 120.0200517 532.790560
20848 20849 20850 1 121.3800518 83.010560
20848 20849 20851 1 120.0200517 532.790560
20850 20849 20851 1 121.3800518 83.010560
2045 20850 6197 1 109.50000 418.400000
2045 20850 6198 1 109.50000 418.400000
2045 20850 20849 1 103.70004 836.800000
6197 20850 6198 1 109.50000 418.400000
6197 20850 20849 1 103.70004 836.800000
6198 20850 20849 1 103.70004 836.800000
20849 20851 20852 1 119.8800511 375.723200
20849 20851 20853 1 120.0200517 532.790560
20852 20851 20853 1 119.8800511 375.723200
20851 20853 20854 1 119.8800511 375.723200
20851 20853 20855 1 120.0200517 532.790560
20854 20853 20855 1 119.8800511 375.723200
20853 20855 20856 1 119.8800511 375.723200
20853 20855 20857 1 120.0200517 532.790560
20856 20855 20857 1 119.8800511 375.723200
20848 20857 20855 1 120.0200517 532.790560
20848 20857 20858 1 119.8800511 375.723200
20855 20857 20858 1 119.8800511 375.723200
20859 20860 20861 1 119.8800511 375.723200
20859 20860 20869 1 119.8800511 375.723200
20861 20860 20869 1 120.0200517 532.790560
20860 20861 20862 1 121.3800518 83.010560
20860 20861 20863 1 120.0200517 532.790560
20862 20861 20863 1 121.3800518 83.010560
5498 20862 6229 1 109.50000 418.400000
5498 20862 11244 1 109.50000 418.400000
5498 20862 20861 1 103.70004 836.800000
6229 20862 11244 1 109.50000 418.400000
6229 20862 20861 1 103.70004 836.800000
11244 20862 20861 1 103.70004 836.800000
20861 20863 20864 1 119.8800511 375.723200
20861 20863 20865 1 120.0200517 532.790560
20864 20863 20865 1 119.8800511 375.723200
20863 20865 20866 1 119.8800511 375.723200
20863 20865 20867 1 120.0200517 532.790560
20866 20865 20867 1 119.8800511 375.723200
20865 20867 20868 1 119.8800511 375.723200
20865 20867 20869 1 120.0200517 532.790560
20868 20867 20869 1 119.8800511 375.723200
20860 20869 20867 1 120.0200517 532.790560
20860 20869 20870 1 119.8800511 375.723200
20867 20869 20870 1 119.8800511 375.723200
20871 20872 20873 1 119.8800511 375.723200
20871 20872 20881 1 119.8800511 375.723200
20873 20872 20881 1 120.0200517 532.790560
20872 20873 20874 1 121.3800518 83.010560
20872 20873 20875 1 120.0200517 532.790560
20874 20873 20875 1 121.3800518 83.010560
6230 20874 6231 1 109.50000 418.400000
6230 20874 6232 1 109.50000 418.400000
6230 20874 20873 1 103.70004 836.800000
6231 20874 6232 1 109.50000 418.400000
6231 20874 20873 1 103.70004 836.800000
6232 20874 20873 1 103.70004 836.800000
20873 20875 20876 1 119.8800511 375.723200
20873 20875 20877 1 120.0200517 532.790560
20876 20875 20877 1 119.8800511 375.723200
20875 20877 20878 1 119.8800511 375.723200
20875 20877 20879 1 120.0200517 532.790560
20878 20877 20879 1 119.8800511 375.723200
20877 20879 20880 1 119.8800511 375.723200
20877 20879 20881 1 120.0200517 532.790560
20880 20879 20881 1 119.8800511 375.723200
20872 20881 20879 1 120.0200517 532.790560
20872 20881 20882 1 119.8800511 375.723200
20879 20881 20882 1 119.8800511 375.723200
20883 20884 20885 1 119.8800511 375.723200
20883 20884 20893 1 119.8800511 375.723200
20885 20884 20893 1 120.0200517 532.790560
20884 20885 20886 1 121.3800518 83.010560
20884 20885 20887 1 120.0200517 532.790560
20886 20885 20887 1 121.3800518 83.010560
4278 20886 4930 1 109.50000 418.400000
4278 20886 6233 1 109.50000 418.400000
4278 20886 20885 1 103.70004 836.800000
4930 20886 6233 1 109.50000 418.400000
4930 20886 20885 1 103.70004 836.800000
6233 20886 20885 1 103.70004 836.800000
20885 20887 20888 1 119.8800511 375.723200
20885 20887 20889 1 120.0200517 532.790560
20888 20887 20889 1 119.8800511 375.723200
20887 20889 20890 1 119.8800511 375.723200
20887 20889 20891 1 120.0200517 532.790560
20890 20889 20891 1 119.8800511 375.723200
20889 20891 20892 1 119.8800511 375.723200
20889 20891 20893 1 120.0200517 532.790560
20892 20891 20893 1 119.8800511 375.723200
20884 20893 20891 1 120.0200517 532.790560
20884 20893 20894 1 119.8800511 375.723200
20891 20893 20894 1 119.8800511 375.723200
20895 20896 20897 1 119.8800511 375.723200
20895 20896 20905 1 119.8800511 375.723200
20897 20896 20905 1 120.0200517 532.790560
20896 20897 20898 1 121.3800518 83.010560
20896 20897 20899 1 120.0200517 532.790560
20898 20897 20899 1 121.3800518 83.010560
6262 20898 6263 1 109.50000 418.400000
6262 20898 6264 1 109.50000 418.400000
6262 20898 20897 1 103.70004 836.800000
6263 20898 6264 1 109.50000 418.400000
6263 20898 20897 1 103.70004 836.800000
6264 20898 20897 1 103.70004 836.800000
20897 20899 20900 1 119.8800511 375.723200
20897 20899 20901 1 120.0200517 532.790560
20900 20899 20901 1 119.8800511 375.723200
20899 20901 20902 1 119.8800511 375.723200
20899 20901 20903 1 120.0200517 532.790560
20902 20901 20903 1 119.8800511 375.723200
20901 20903 20904 1 119.8800511 375.723200
20901 20903 20905 1 120.0200517 532.790560
20904 20903 20905 1 119.8800511 375.723200
20896 20905 20903 1 120.0200517 532.790560
20896 20905 20906 1 119.8800511 375.723200
20903 20905 20906 1 119.8800511 375.723200
20907 20908 20909 1 119.8800511 375.723200
20907 20908 20917 1 119.8800511 375.723200
20909 20908 20917 1 120.0200517 532.790560
20908 20909 20910 1 121.3800518 83.010560
20908 20909 20911 1 120.0200517 532.790560
20910 20909 20911 1 121.3800518 83.010560
5000 20910 6267 1 109.50000 418.400000
5000 20910 11245 1 109.50000 418.400000
5000 20910 20909 1 103.70004 836.800000
6267 20910 11245 1 109.50000 418.400000
6267 20910 20909 1 103.70004 836.800000
11245 20910 20909 1 103.70004 836.800000
20909 20911 20912 1 119.8800511 375.723200
20909 20911 20913 1 120.0200517 532.790560
20912 20911 20913 1 119.8800511 375.723200
20911 20913 20914 1 119.8800511 375.723200
20911 20913 20915 1 120.0200517 532.790560
20914 20913 20915 1 119.8800511 375.723200
20913 20915 20916 1 119.8800511 375.723200
20913 20915 20917 1 120.0200517 532.790560
20916 20915 20917 1 119.8800511 375.723200
20908 20917 20915 1 120.0200517 532.790560
20908 20917 20918 1 119.8800511 375.723200
20915 20917 20918 1 119.8800511 375.723200
20919 20920 20921 1 119.8800511 375.723200
20919 20920 20929 1 119.8800511 375.723200
20921 20920 20929 1 120.0200517 532.790560
20920 20921 20922 1 121.3800518 83.010560
20920 20921 20923 1 120.0200517 532.790560
20922 20921 20923 1 121.3800518 83.010560
6314 20922 6315 1 109.50000 418.400000
6314 20922 11246 1 109.50000 418.400000
6314 20922 20921 1 103.70004 836.800000
6315 20922 11246 1 109.50000 418.400000
6315 20922 20921 1 103.70004 836.800000
11246 20922 20921 1 103.70004 836.800000
20921 20923 20924 1 119.8800511 375.723200
20921 20923 20925 1 120.0200517 532.790560
20924 20923 20925 1 119.8800511 375.723200
20923 20925 20926 1 119.8800511 375.723200
20923 20925 20927 1 120.0200517 532.790560
20926 20925 20927 1 119.8800511 375.723200
20925 20927 20928 1 119.8800511 375.723200
20925 20927 20929 1 120.0200517 532.790560
20928 20927 20929 1 119.8800511 375.723200
20920 20929 20927 1 120.0200517 532.790560
20920 20929 20930 1 119.8800511 375.723200
20927 20929 20930 1 119.8800511 375.723200
20931 20932 20933 1 119.8800511 375.723200
20931 20932 20941 1 119.8800511 375.723200
20933 20932 20941 1 120.0200517 532.790560
20932 20933 20934 1 121.3800518 83.010560
20932 20933 20935 1 120.0200517 532.790560
20934 20933 20935 1 121.3800518 83.010560
2557 20934 2560 1 109.50000 418.400000
2557 20934 6335 1 109.50000 418.400000
2557 20934 20933 1 103.70004 836.800000
2560 20934 6335 1 109.50000 418.400000
2560 20934 20933 1 103.70004 836.800000
6335 20934 20933 1 103.70004 836.800000
20933 20935 20936 1 119.8800511 375.723200
20933 20935 20937 1 120.0200517 532.790560
20936 20935 20937 1 119.8800511 375.723200
20935 20937 20938 1 119.8800511 375.723200
20935 20937 20939 1 120.0200517 532.790560
20938 20937 20939 1 119.8800511 375.723200
20937 20939 20940 1 119.8800511 375.723200
20937 20939 20941 1 120.0200517 532.790560
20940 20939 20941 1 119.8800511 375.723200
20932 20941 20939 1 120.0200517 532.790560
20932 20941 20942 1 119.8800511 375.723200
20939 20941 20942 1 119.8800511 375.723200
20943 20944 20945 1 119.8800511 375.723200
20943 20944 20953 1 119.8800511 375.723200
20945 20944 20953 1 120.0200517 532.790560
20944 20945 20946 1 121.3800518 83.010560
20944 20945 20947 1 120.0200517 532.790560
20946 20945 20947 1 121.3800518 83.010560
6350 20946 6351 1 109.50000 418.400000
6350 20946 11247 1 109.50000 418.400000
6350 20946 20945 1 103.70004 836.800000
6351 20946 11247 1 109.50000 418.400000
6351 20946 20945 1 103.70004 836.800000
11247 20946 20945 1 103.70004 836.800000
20945 20947 20948 1 119.8800511 375.723200
20945 20947 20949 1 120.0200517 532.790560
20948 20947 20949 1 119.8800511 375.723200
20947 20949 20950 1 119.8800511 375.723200
20947 20949 20951 1 120.0200517 532.790560
20950 20949 20951 1 119.8800511 375.723200
20949 20951 20952 1 119.8800511 375.723200
20949 20951 20953 1 120.0200517 532.790560
20952 20951 20953 1 119.8800511 375.723200
20944 20953 20951 1 120.0200517 532.790560
20944 20953 20954 1 119.8800511 375.723200
20951 20953 20954 1 119.8800511 375.723200
20955 20956 20957 1 119.8800511 375.723200
20955 20956 20965 1 119.8800511 375.723200
20957 20956 20965 1 120.0200517 532.790560
20956 20957 20958 1 121.3800518 83.010560
20956 20957 20959 1 120.0200517 532.790560
20958 20957 20959 1 121.3800518 83.010560
5762 20958 6382 1 109.50000 418.400000
5762 20958 11248 1 109.50000 418.400000
5762 20958 20957 1 103.70004 836.800000
6382 20958 11248 1 109.50000 418.400000
6382 20958 20957 1 103.70004 836.800000
11248 20958 20957 1 103.70004 836.800000
20957 20959 20960 1 119.8800511 375.723200
20957 20959 20961 1 120.0200517 532.790560
20960 20959 20961 1 119.8800511 375.723200
20959 20961 20962 1 119.8800511 375.723200
20959 20961 20963 1 120.0200517 532.790560
20962 20961 20963 1 119.8800511 375.723200
20961 20963 20964 1 119.8800511 375.723200
20961 20963 20965 1 120.0200517 532.790560
20964 20963 20965 1 119.8800511 375.723200
20956 20965 20963 1 120.0200517 532.790560
20956 20965 20966 1 119.8800511 375.723200
20963 20965 20966 1 119.8800511 375.723200
20967 20968 20969 1 119.8800511 375.723200
20967 20968 20977 1 119.8800511 375.723200
20969 20968 20977 1 120.0200517 532.790560
20968 20969 20970 1 121.3800518 83.010560
20968 20969 20971 1 120.0200517 532.790560
20970 20969 20971 1 121.3800518 83.010560
4513 20970 6383 1 109.50000 418.400000
4513 20970 6384 1 109.50000 418.400000
4513 20970 20969 1 103.70004 836.800000
6383 20970 6384 1 109.50000 418.400000
6383 20970 20969 1 103.70004 836.800000
6384 20970 20969 1 103.70004 836.800000
20969 20971 20972 1 119.8800511 375.723200
20969 20971 20973 1 120.0200517 532.790560
20972 20971 20973 1 119.8800511 375.723200
20971 20973 20974 1 119.8800511 375.723200
20971 20973 20975 1 120.0200517 532.790560
20974 20973 20975 1 119.8800511 375.723200
20973 20975 20976 1 119.8800511 375.723200
20973 20975 20977 1 120.0200517 532.790560
20976 20975 20977 1 119.8800511 375.723200
20968 20977 20975 1 120.0200517 532.790560
20968 20977 20978 1 119.8800511 375.723200
20975 20977 20978 1 119.8800511 375.723200
20979 20980 20981 1 119.8800511 375.723200
20979 20980 20989 1 119.8800511 375.723200
20981 20980 20989 1 120.0200517 532.790560
20980 20981 20982 1 121.3800518 83.010560
20980 20981 20983 1 120.0200517 532.790560
20982 20981 20983 1 121.3800518 83.010560
2730 20982 6385 1 109.50000 418.400000
2730 20982 6386 1 109.50000 418.400000
2730 20982 20981 1 103.70004 836.800000
6385 20982 6386 1 109.50000 418.400000
6385 20982 20981 1 103.70004 836.800000
6386 20982 20981 1 103.70004 836.800000
20981 20983 20984 1 119.8800511 375.723200
20981 20983 20985 1 120.0200517 532.790560
20984 20983 20985 1 119.8800511 375.723200
20983 20985 20986 1 119.8800511 375.723200
20983 20985 20987 1 120.0200517 532.790560
20986 20985 20987 1 119.8800511 375.723200
20985 20987 20988 1 119.8800511 375.723200
20985 20987 20989 1 120.0200517 532.790560
20988 20987 20989 1 119.8800511 375.723200
20980 20989 20987 1 120.0200517 532.790560
20980 20989 20990 1 119.8800511 375.723200
20987 20989 20990 1 119.8800511 375.723200
20991 20992 20993 1 119.8800511 375.723200
20991 20992 21001 1 119.8800511 375.723200
20993 20992 21001 1 120.0200517 532.790560
20992 20993 20994 1 121.3800518 83.010560
20992 20993 20995 1 120.0200517 532.790560
20994 20993 20995 1 121.3800518 83.010560
6395 20994 6396 1 109.50000 418.400000
6395 20994 6397 1 109.50000 418.400000
6395 20994 20993 1 103.70004 836.800000
6396 20994 6397 1 109.50000 418.400000
6396 20994 20993 1 103.70004 836.800000
6397 20994 20993 1 103.70004 836.800000
20993 20995 20996 1 119.8800511 375.723200
20993 20995 20997 1 120.0200517 532.790560
20996 20995 20997 1 119.8800511 375.723200
20995 20997 20998 1 119.8800511 375.723200
20995 20997 20999 1 120.0200517 532.790560
20998 20997 20999 1 119.8800511 375.723200
20997 20999 21000 1 119.8800511 375.723200
20997 20999 21001 1 120.0200517 532.790560
21000 20999 21001 1 119.8800511 375.723200
20992 21001 20999 1 120.0200517 532.790560
20992 21001 21002 1 119.8800511 375.723200
20999 21001 21002 1 119.8800511 375.723200
21003 21004 21005 1 119.8800511 375.723200
21003 21004 21013 1 119.8800511 375.723200
21005 21004 21013 1 120.0200517 532.790560
21004 21005 21006 1 121.3800518 83.010560
21004 21005 21007 1 120.0200517 532.790560
21006 21005 21007 1 121.3800518 83.010560
5361 21006 6026 1 109.50000 418.400000
5361 21006 11249 1 109.50000 418.400000
5361 21006 21005 1 103.70004 836.800000
6026 21006 11249 1 109.50000 418.400000
6026 21006 21005 1 103.70004 836.800000
11249 21006 21005 1 103.70004 836.800000
21005 21007 21008 1 119.8800511 375.723200
21005 21007 21009 1 120.0200517 532.790560
21008 21007 21009 1 119.8800511 375.723200
21007 21009 21010 1 119.8800511 375.723200
21007 21009 21011 1 120.0200517 532.790560
21010 21009 21011 1 119.8800511 375.723200
21009 21011 21012 1 119.8800511 375.723200
21009 21011 21013 1 120.0200517 532.790560
21012 21011 21013 1 119.8800511 375.723200
21004 21013 21011 1 120.0200517 532.790560
21004 21013 21014 1 119.8800511 375.723200
21011 21013 21014 1 119.8800511 375.723200
21015 21016 21017 1 119.8800511 375.723200
21015 21016 21025 1 119.8800511 375.723200
21017 21016 21025 1 120.0200517 532.790560
21016 21017 21018 1 121.3800518 83.010560
21016 21017 21019 1 120.0200517 532.790560
21018 21017 21019 1 121.3800518 83.010560
6486 21018 6487 1 109.50000 418.400000
6486 21018 7783 1 109.50000 418.400000
6486 21018 21017 1 103.70004 836.800000
6487 21018 7783 1 109.50000 418.400000
6487 21018 21017 1 103.70004 836.800000
7783 21018 21017 1 103.70004 836.800000
21017 21019 21020 1 119.8800511 375.723200
21017 21019 21021 1 120.0200517 532.790560
21020 21019 21021 1 119.8800511 375.723200
21019 21021 21022 1 119.8800511 375.723200
21019 21021 21023 1 120.0200517 532.790560
21022 21021 21023 1 119.8800511 375.723200
21021 21023 21024 1 119.8800511 375.723200
21021 21023 21025 1 120.0200517 532.790560
21024 21023 21025 1 119.8800511 375.723200
21016 21025 21023 1 120.0200517 532.790560
21016 21025 21026 1 119.8800511 375.723200
21023 21025 21026 1 119.8800511 375.723200
21027 21028 21029 1 119.8800511 375.723200
21027 21028 21037 1 119.8800511 375.723200
21029 21028 21037 1 120.0200517 532.790560
21028 21029 21030 1 121.3800518 83.010560
21028 21029 21031 1 120.0200517 532.790560
21030 21029 21031 1 121.3800518 83.010560
491 21030 5846 1 109.50000 418.400000
491 21030 11250 1 109.50000 418.400000
491 21030 21029 1 103.70004 836.800000
5846 21030 11250 1 109.50000 418.400000
5846 21030 21029 1 103.70004 836.800000
11250 21030 21029 1 103.70004 836.800000
21029 21031 21032 1 119.8800511 375.723200
21029 21031 21033 1 120.0200517 532.790560
21032 21031 21033 1 119.8800511 375.723200
21031 21033 21034 1 119.8800511 375.723200
21031 21033 21035 1 120.0200517 532.790560
21034 21033 21035 1 119.8800511 375.723200
21033 21035 21036 1 119.8800511 375.723200
21033 21035 21037 1 120.0200517 532.790560
21036 21035 21037 1 119.8800511 375.723200
21028 21037 21035 1 120.0200517 532.790560
21028 21037 21038 1 119.8800511 375.723200
21035 21037 21038 1 119.8800511 375.723200
21039 21040 21041 1 119.8800511 375.723200
21039 21040 21049 1 119.8800511 375.723200
21041 21040 21049 1 120.0200517 532.790560
21040 21041 21042 1 121.3800518 83.010560
21040 21041 21043 1 120.0200517 532.790560
21042 21041 21043 1 121.3800518 83.010560
4777 21042 5251 1 109.50000 418.400000
4777 21042 6526 1 109.50000 418.400000
4777 21042 21041 1 103.70004 836.800000
5251 21042 6526 1 109.50000 418.400000
5251 21042 21041 1 103.70004 836.800000
6526 21042 21041 1 103.70004 836.800000
21041 21043 21044 1 119.8800511 375.723200
21041 21043 21045 1 120.0200517 532.790560
21044 21043 21045 1 119.8800511 375.723200
21043 21045 21046 1 119.8800511 375.723200
21043 21045 21047 1 120.0200517 532.790560
21046 21045 21047 1 119.8800511 375.723200
21045 21047 21048 1 119.8800511 375.723200
21045 21047 21049 1 120.0200517 532.790560
21048 21047 21049 1 119.8800511 375.723200
21040 21049 21047 1 120.0200517 532.790560
21040 21049 21050 1 119.8800511 375.723200
21047 21049 21050 1 119.8800511 375.723200
21051 21052 21053 1 119.8800511 375.723200
21051 21052 21061 1 119.8800511 375.723200
21053 21052 21061 1 120.0200517 532.790560
21052 21053 21054 1 121.3800518 83.010560
21052 21053 21055 1 120.0200517 532.790560
21054 21053 21055 1 121.3800518 83.010560
2107 21054 6556 1 109.50000 418.400000
2107 21054 6557 1 109.50000 418.400000
2107 21054 21053 1 103.70004 836.800000
6556 21054 6557 1 109.50000 418.400000
6556 21054 21053 1 103.70004 836.800000
6557 21054 21053 1 103.70004 836.800000
21053 21055 21056 1 119.8800511 375.723200
21053 21055 21057 1 120.0200517 532.790560
21056 21055 21057 1 119.8800511 375.723200
21055 21057 21058 1 119.8800511 375.723200
21055 21057 21059 1 120.0200517 532.790560
21058 21057 21059 1 119.8800511 375.723200
21057 21059 21060 1 119.8800511 375.723200
21057 21059 21061 1 120.0200517 532.790560
21060 21059 21061 1 119.8800511 375.723200
21052 21061 21059 1 120.0200517 532.790560
21052 21061 21062 1 119.8800511 375.723200
21059 21061 21062 1 119.8800511 375.723200
21063 21064 21065 1 119.8800511 375.723200
21063 21064 21073 1 119.8800511 375.723200
21065 21064 21073 1 120.0200517 532.790560
21064 21065 21066 1 121.3800518 83.010560
21064 21065 21067 1 120.0200517 532.790560
21066 21065 21067 1 121.3800518 83.010560
499 21066 6558 1 109.50000 418.400000
499 21066 11251 1 109.50000 418.400000
499 21066 21065 1 103.70004 836.800000
6558 21066 11251 1 109.50000 418.400000
6558 21066 21065 1 103.70004 836.800000
11251 21066 21065 1 103.70004 836.800000
21065 21067 21068 1 119.8800511 375.723200
21065 21067 21069 1 120.0200517 532.790560
21068 21067 21069 1 119.8800511 375.723200
21067 21069 21070 1 119.8800511 375.723200
21067 21069 21071 1 120.0200517 532.790560
21070 21069 21071 1 119.8800511 375.723200
21069 21071 21072 1 119.8800511 375.723200
21069 21071 21073 1 120.0200517 532.790560
21072 21071 21073 1 119.8800511 375.723200
21064 21073 21071 1 120.0200517 532.790560
21064 21073 21074 1 119.8800511 375.723200
21071 21073 21074 1 119.8800511 375.723200
21075 21076 21077 1 119.8800511 375.723200
21075 21076 21085 1 119.8800511 375.723200
21077 21076 21085 1 120.0200517 532.790560
21076 21077 21078 1 121.3800518 83.010560
21076 21077 21079 1 120.0200517 532.790560
21078 21077 21079 1 121.3800518 83.010560
6566 21078 6567 1 109.50000 418.400000
6566 21078 6568 1 109.50000 418.400000
6566 21078 21077 1 103.70004 836.800000
6567 21078 6568 1 109.50000 418.400000
6567 21078 21077 1 103.70004 836.800000
6568 21078 21077 1 103.70004 836.800000
21077 21079 21080 1 119.8800511 375.723200
21077 21079 21081 1 120.0200517 532.790560
21080 21079 21081 1 119.8800511 375.723200
21079 21081 21082 1 119.8800511 375.723200
21079 21081 21083 1 120.0200517 532.790560
21082 21081 21083 1 119.8800511 375.723200
21081 21083 21084 1 119.8800511 375.723200
21081 21083 21085 1 120.0200517 532.790560
21084 21083 21085 1 119.8800511 375.723200
21076 21085 21083 1 120.0200517 532.790560
21076 21085 21086 1 119.8800511 375.723200
21083 21085 21086 1 119.8800511 375.723200
21087 21088 21089 1 119.8800511 375.723200
21087 21088 21097 1 119.8800511 375.723200
21089 21088 21097 1 120.0200517 532.790560
21088 21089 21090 1 121.3800518 83.010560
21088 21089 21091 1 120.0200517 532.790560
21090 21089 21091 1 121.3800518 83.010560
1945 21090 6569 1 109.50000 418.400000
1945 21090 6570 1 109.50000 418.400000
1945 21090 21089 1 103.70004 836.800000
6569 21090 6570 1 109.50000 418.400000
6569 21090 21089 1 103.70004 836.800000
6570 21090 21089 1 103.70004 836.800000
21089 21091 21092 1 119.8800511 375.723200
21089 21091 21093 1 120.0200517 532.790560
21092 21091 21093 1 119.8800511 375.723200
21091 21093 21094 1 119.8800511 375.723200
21091 21093 21095 1 120.0200517 532.790560
21094 21093 21095 1 119.8800511 375.723200
21093 21095 21096 1 119.8800511 375.723200
21093 21095 21097 1 120.0200517 532.790560
21096 21095 21097 1 119.8800511 375.723200
21088 21097 21095 1 120.0200517 532.790560
21088 21097 21098 1 119.8800511 375.723200
21095 21097 21098 1 119.8800511 375.723200
21099 21100 21101 1 119.8800511 375.723200
21099 21100 21109 1 119.8800511 375.723200
21101 21100 21109 1 120.0200517 532.790560
21100 21101 21102 1 121.3800518 83.010560
21100 21101 21103 1 120.0200517 532.790560
21102 21101 21103 1 121.3800518 83.010560
6572 21102 6573 1 109.50000 418.400000
6572 21102 10080 1 109.50000 418.400000
6572 21102 21101 1 103.70004 836.800000
6573 21102 10080 1 109.50000 418.400000
6573 21102 21101 1 103.70004 836.800000
10080 21102 21101 1 103.70004 836.800000
21101 21103 21104 1 119.8800511 375.723200
21101 21103 21105 1 120.0200517 532.790560
21104 21103 21105 1 119.8800511 375.723200
21103 21105 21106 1 119.8800511 375.723200
21103 21105 21107 1 120.0200517 532.790560
21106 21105 21107 1 119.8800511 375.723200
21105 21107 21108 1 119.8800511 375.723200
21105 21107 21109 1 120.0200517 532.790560
21108 21107 21109 1 119.8800511 375.723200
21100 21109 21107 1 120.0200517 532.790560
21100 21109 21110 1 119.8800511 375.723200
21107 21109 21110 1 119.8800511 375.723200
21111 21112 21113 1 119.8800511 375.723200
21111 21112 21121 1 119.8800511 375.723200
21113 21112 21121 1 120.0200517 532.790560
21112 21113 21114 1 121.3800518 83.010560
21112 21113 21115 1 120.0200517 532.790560
21114 21113 21115 1 121.3800518 83.010560
1896 21114 6581 1 109.50000 418.400000
1896 21114 11252 1 109.50000 418.400000
1896 21114 21113 1 103.70004 836.800000
6581 21114 11252 1 109.50000 418.400000
6581 21114 21113 1 103.70004 836.800000
11252 21114 21113 1 103.70004 836.800000
21113 21115 21116 1 119.8800511 375.723200
21113 21115 21117 1 120.0200517 532.790560
21116 21115 21117 1 119.8800511 375.723200
21115 21117 21118 1 119.8800511 375.723200
21115 21117 21119 1 120.0200517 532.790560
21118 21117 21119 1 119.8800511 375.723200
21117 21119 21120 1 119.8800511 375.723200
21117 21119 21121 1 120.0200517 532.790560
21120 21119 21121 1 119.8800511 375.723200
21112 21121 21119 1 120.0200517 532.790560
21112 21121 21122 1 119.8800511 375.723200
21119 21121 21122 1 119.8800511 375.723200
21123 21124 21125 1 119.8800511 375.723200
21123 21124 21133 1 119.8800511 375.723200
21125 21124 21133 1 120.0200517 532.790560
21124 21125 21126 1 121.3800518 83.010560
21124 21125 21127 1 120.0200517 532.790560
21126 21125 21127 1 121.3800518 83.010560
6560 21126 6600 1 109.50000 418.400000
6560 21126 6601 1 109.50000 418.400000
6560 21126 21125 1 103.70004 836.800000
6600 21126 6601 1 109.50000 418.400000
6600 21126 21125 1 103.70004 836.800000
6601 21126 21125 1 103.70004 836.800000
21125 21127 21128 1 119.8800511 375.723200
21125 21127 21129 1 120.0200517 532.790560
21128 21127 21129 1 119.8800511 375.723200
21127 21129 21130 1 119.8800511 375.723200
21127 21129 21131 1 120.0200517 532.790560
21130 21129 21131 1 119.8800511 375.723200
21129 21131 21132 1 119.8800511 375.723200
21129 21131 21133 1 120.0200517 532.790560
21132 21131 21133 1 119.8800511 375.723200
21124 21133 21131 1 120.0200517 532.790560
21124 21133 21134 1 119.8800511 375.723200
21131 21133 21134 1 119.8800511 375.723200
21135 21136 21137 1 119.8800511 375.723200
21135 21136 21145 1 119.8800511 375.723200
21137 21136 21145 1 120.0200517 532.790560
21136 21137 21138 1 121.3800518 83.010560
21136 21137 21139 1 120.0200517 532.790560
21138 21137 21139 1 121.3800518 83.010560
512 21138 6639 1 109.50000 418.400000
512 21138 11253 1 109.50000 418.400000
512 21138 21137 1 103.70004 836.800000
6639 21138 11253 1 109.50000 418.400000
6639 21138 21137 1 103.70004 836.800000
11253 21138 21137 1 103.70004 836.800000
21137 21139 21140 1 119.8800511 375.723200
21137 21139 21141 1 120.0200517 532.790560
21140 21139 21141 1 119.8800511 375.723200
21139 21141 21142 1 119.8800511 375.723200
21139 21141 21143 1 120.0200517 532.790560
21142 21141 21143 1 119.8800511 375.723200
21141 21143 21144 1 119.8800511 375.723200
21141 21143 21145 1 120.0200517 532.790560
21144 21143 21145 1 119.8800511 375.723200
21136 21145 21143 1 120.0200517 532.790560
21136 21145 21146 1 119.8800511 375.723200
21143 21145 21146 1 119.8800511 375.723200
21147 21148 21149 1 119.8800511 375.723200
21147 21148 21157 1 119.8800511 375.723200
21149 21148 21157 1 120.0200517 532.790560
21148 21149 21150 1 121.3800518 83.010560
21148 21149 21151 1 120.0200517 532.790560
21150 21149 21151 1 121.3800518 83.010560
2495 21150 5424 1 109.50000 418.400000
2495 21150 6643 1 109.50000 418.400000
2495 21150 21149 1 103.70004 836.800000
5424 21150 6643 1 109.50000 418.400000
5424 21150 21149 1 103.70004 836.800000
6643 21150 21149 1 103.70004 836.800000
21149 21151 21152 1 119.8800511 375.723200
21149 21151 21153 1 120.0200517 532.790560
21152 21151 21153 1 119.8800511 375.723200
21151 21153 21154 1 119.8800511 375.723200
21151 21153 21155 1 120.0200517 532.790560
21154 21153 21155 1 119.8800511 375.723200
21153 21155 21156 1 119.8800511 375.723200
21153 21155 21157 1 120.0200517 532.790560
21156 21155 21157 1 119.8800511 375.723200
21148 21157 21155 1 120.0200517 532.790560
21148 21157 21158 1 119.8800511 375.723200
21155 21157 21158 1 119.8800511 375.723200
21159 21160 21161 1 119.8800511 375.723200
21159 21160 21169 1 119.8800511 375.723200
21161 21160 21169 1 120.0200517 532.790560
21160 21161 21162 1 121.3800518 83.010560
21160 21161 21163 1 120.0200517 532.790560
21162 21161 21163 1 121.3800518 83.010560
174 21162 6557 1 109.50000 418.400000
174 21162 6647 1 109.50000 418.400000
174 21162 21161 1 103.70004 836.800000
6557 21162 6647 1 109.50000 418.400000
6557 21162 21161 1 103.70004 836.800000
6647 21162 21161 1 103.70004 836.800000
21161 21163 21164 1 119.8800511 375.723200
21161 21163 21165 1 120.0200517 532.790560
21164 21163 21165 1 119.8800511 375.723200
21163 21165 21166 1 119.8800511 375.723200
21163 21165 21167 1 120.0200517 532.790560
21166 21165 21167 1 119.8800511 375.723200
21165 21167 21168 1 119.8800511 375.723200
21165 21167 21169 1 120.0200517 532.790560
21168 21167 21169 1 119.8800511 375.723200
21160 21169 21167 1 120.0200517 532.790560
21160 21169 21170 1 119.8800511 375.723200
21167 21169 21170 1 119.8800511 375.723200
21171 21172 21173 1 119.8800511 375.723200
21171 21172 21181 1 119.8800511 375.723200
21173 21172 21181 1 120.0200517 532.790560
21172 21173 21174 1 121.3800518 83.010560
21172 21173 21175 1 120.0200517 532.790560
21174 21173 21175 1 121.3800518 83.010560
6648 21174 6649 1 109.50000 418.400000
6648 21174 6650 1 109.50000 418.400000
6648 21174 21173 1 103.70004 836.800000
6649 21174 6650 1 109.50000 418.400000
6649 21174 21173 1 103.70004 836.800000
6650 21174 21173 1 103.70004 836.800000
21173 21175 21176 1 119.8800511 375.723200
21173 21175 21177 1 120.0200517 532.790560
21176 21175 21177 1 119.8800511 375.723200
21175 21177 21178 1 119.8800511 375.723200
21175 21177 21179 1 120.0200517 532.790560
21178 21177 21179 1 119.8800511 375.723200
21177 21179 21180 1 119.8800511 375.723200
21177 21179 21181 1 120.0200517 532.790560
21180 21179 21181 1 119.8800511 375.723200
21172 21181 21179 1 120.0200517 532.790560
21172 21181 21182 1 119.8800511 375.723200
21179 21181 21182 1 119.8800511 375.723200
21183 21184 21185 1 119.8800511 375.723200
21183 21184 21193 1 119.8800511 375.723200
21185 21184 21193 1 120.0200517 532.790560
21184 21185 21186 1 121.3800518 83.010560
21184 21185 21187 1 120.0200517 532.790560
21186 21185 21187 1 121.3800518 83.010560
6383 21186 6658 1 109.50000 418.400000
6383 21186 11254 1 109.50000 418.400000
6383 21186 21185 1 103.70004 836.800000
6658 21186 11254 1 109.50000 418.400000
6658 21186 21185 1 103.70004 836.800000
11254 21186 21185 1 103.70004 836.800000
21185 21187 21188 1 119.8800511 375.723200
21185 21187 21189 1 120.0200517 532.790560
21188 21187 21189 1 119.8800511 375.723200
21187 21189 21190 1 119.8800511 375.723200
21187 21189 21191 1 120.0200517 532.790560
21190 21189 21191 1 119.8800511 375.723200
21189 21191 21192 1 119.8800511 375.723200
21189 21191 21193 1 120.0200517 532.790560
21192 21191 21193 1 119.8800511 375.723200
21184 21193 21191 1 120.0200517 532.790560
21184 21193 21194 1 119.8800511 375.723200
21191 21193 21194 1 119.8800511 375.723200
21195 21196 21197 1 119.8800511 375.723200
21195 21196 21205 1 119.8800511 375.723200
21197 21196 21205 1 120.0200517 532.790560
21196 21197 21198 1 121.3800518 83.010560
21196 21197 21199 1 120.0200517 532.790560
21198 21197 21199 1 121.3800518 83.010560
4991 21198 6726 1 109.50000 418.400000
4991 21198 11256 1 109.50000 418.400000
4991 21198 21197 1 103.70004 836.800000
6726 21198 11256 1 109.50000 418.400000
6726 21198 21197 1 103.70004 836.800000
11256 21198 21197 1 103.70004 836.800000
21197 21199 21200 1 119.8800511 375.723200
21197 21199 21201 1 120.0200517 532.790560
21200 21199 21201 1 119.8800511 375.723200
21199 21201 21202 1 119.8800511 375.723200
21199 21201 21203 1 120.0200517 532.790560
21202 21201 21203 1 119.8800511 375.723200
21201 21203 21204 1 119.8800511 375.723200
21201 21203 21205 1 120.0200517 532.790560
21204 21203 21205 1 119.8800511 375.723200
21196 21205 21203 1 120.0200517 532.790560
21196 21205 21206 1 119.8800511 375.723200
21203 21205 21206 1 119.8800511 375.723200
21207 21208 21209 1 119.8800511 375.723200
21207 21208 21217 1 119.8800511 375.723200
21209 21208 21217 1 120.0200517 532.790560
21208 21209 21210 1 121.3800518 83.010560
21208 21209 21211 1 120.0200517 532.790560
21210 21209 21211 1 121.3800518 83.010560
5582 21210 6741 1 109.50000 418.400000
5582 21210 6742 1 109.50000 418.400000
5582 21210 21209 1 103.70004 836.800000
6741 21210 6742 1 109.50000 418.400000
6741 21210 21209 1 103.70004 836.800000
6742 21210 21209 1 103.70004 836.800000
21209 21211 21212 1 119.8800511 375.723200
21209 21211 21213 1 120.0200517 532.790560
21212 21211 21213 1 119.8800511 375.723200
21211 21213 21214 1 119.8800511 375.723200
21211 21213 21215 1 120.0200517 532.790560
21214 21213 21215 1 119.8800511 375.723200
21213 21215 21216 1 119.8800511 375.723200
21213 21215 21217 1 120.0200517 532.790560
21216 21215 21217 1 119.8800511 375.723200
21208 21217 21215 1 120.0200517 532.790560
21208 21217 21218 1 119.8800511 375.723200
21215 21217 21218 1 119.8800511 375.723200
21219 21220 21221 1 119.8800511 375.723200
21219 21220 21229 1 119.8800511 375.723200
21221 21220 21229 1 120.0200517 532.790560
21220 21221 21222 1 121.3800518 83.010560
21220 21221 21223 1 120.0200517 532.790560
21222 21221 21223 1 121.3800518 83.010560
30 21222 3779 1 109.50000 418.400000
30 21222 5714 1 109.50000 418.400000
30 21222 21221 1 103.70004 836.800000
3779 21222 5714 1 109.50000 418.400000
3779 21222 21221 1 103.70004 836.800000
5714 21222 21221 1 103.70004 836.800000
21221 21223 21224 1 119.8800511 375.723200
21221 21223 21225 1 120.0200517 532.790560
21224 21223 21225 1 119.8800511 375.723200
21223 21225 21226 1 119.8800511 375.723200
21223 21225 21227 1 120.0200517 532.790560
21226 21225 21227 1 119.8800511 375.723200
21225 21227 21228 1 119.8800511 375.723200
21225 21227 21229 1 120.0200517 532.790560
21228 21227 21229 1 119.8800511 375.723200
21220 21229 21227 1 120.0200517 532.790560
21220 21229 21230 1 119.8800511 375.723200
21227 21229 21230 1 119.8800511 375.723200
21231 21232 21233 1 119.8800511 375.723200
21231 21232 21241 1 119.8800511 375.723200
21233 21232 21241 1 120.0200517 532.790560
21232 21233 21234 1 121.3800518 83.010560
21232 21233 21235 1 120.0200517 532.790560
21234 21233 21235 1 121.3800518 83.010560
2540 21234 6901 1 109.50000 418.400000
2540 21234 11257 1 109.50000 418.400000
2540 21234 21233 1 103.70004 836.800000
6901 21234 11257 1 109.50000 418.400000
6901 21234 21233 1 103.70004 836.800000
11257 21234 21233 1 103.70004 836.800000
21233 21235 21236 1 119.8800511 375.723200
21233 21235 21237 1 120.0200517 532.790560
21236 21235 21237 1 119.8800511 375.723200
21235 21237 21238 1 119.8800511 375.723200
21235 21237 21239 1 120.0200517 532.790560
21238 21237 21239 1 119.8800511 375.723200
21237 21239 21240 1 119.8800511 375.723200
21237 21239 21241 1 120.0200517 532.790560
21240 21239 21241 1 119.8800511 375.723200
21232 21241 21239 1 120.0200517 532.790560
21232 21241 21242 1 119.8800511 375.723200
21239 21241 21242 1 119.8800511 375.723200
21243 21244 21245 1 119.8800511 375.723200
21243 21244 21253 1 119.8800511 375.723200
21245 21244 21253 1 120.0200517 532.790560
21244 21245 21246 1 121.3800518 83.010560
21244 21245 21247 1 120.0200517 532.790560
21246 21245 21247 1 121.3800518 83.010560
2046 21246 6921 1 109.50000 418.400000
2046 21246 11258 1 109.50000 418.400000
2046 21246 21245 1 103.70004 836.800000
6921 21246 11258 1 109.50000 418.400000
6921 21246 21245 1 103.70004 836.800000
11258 21246 21245 1 103.70004 836.800000
21245 21247 21248 1 119.8800511 375.723200
21245 21247 21249 1 120.0200517 532.790560
21248 21247 21249 1 119.8800511 375.723200
21247 21249 21250 1 119.8800511 375.723200
21247 21249 21251 1 120.0200517 532.790560
21250 21249 21251 1 119.8800511 375.723200
21249 21251 21252 1 119.8800511 375.723200
21249 21251 21253 1 120.0200517 532.790560
21252 21251 21253 1 119.8800511 375.723200
21244 21253 21251 1 120.0200517 532.790560
21244 21253 21254 1 119.8800511 375.723200
21251 21253 21254 1 119.8800511 375.723200
21255 21256 21257 1 119.8800511 375.723200
21255 21256 21265 1 119.8800511 375.723200
21257 21256 21265 1 120.0200517 532.790560
21256 21257 21258 1 121.3800518 83.010560
21256 21257 21259 1 120.0200517 532.790560
21258 21257 21259 1 121.3800518 83.010560
2952 21258 6931 1 109.50000 418.400000
2952 21258 6932 1 109.50000 418.400000
2952 21258 21257 1 103.70004 836.800000
6931 21258 6932 1 109.50000 418.400000
6931 21258 21257 1 103.70004 836.800000
6932 21258 21257 1 103.70004 836.800000
21257 21259 21260 1 119.8800511 375.723200
21257 21259 21261 1 120.0200517 532.790560
21260 21259 21261 1 119.8800511 375.723200
21259 21261 21262 1 119.8800511 375.723200
21259 21261 21263 1 120.0200517 532.790560
21262 21261 21263 1 119.8800511 375.723200
21261 21263 21264 1 119.8800511 375.723200
21261 21263 21265 1 120.0200517 532.790560
21264 21263 21265 1 119.8800511 375.723200
21256 21265 21263 1 120.0200517 532.790560
21256 21265 21266 1 119.8800511 375.723200
21263 21265 21266 1 119.8800511 375.723200
21267 21268 21269 1 119.8800511 375.723200
21267 21268 21277 1 119.8800511 375.723200
21269 21268 21277 1 120.0200517 532.790560
21268 21269 21270 1 121.3800518 83.010560
21268 21269 21271 1 120.0200517 532.790560
21270 21269 21271 1 121.3800518 83.010560
1962 21270 6950 1 109.50000 418.400000
1962 21270 10032 1 109.50000 418.400000
1962 21270 21269 1 103.70004 836.800000
6950 21270 10032 1 109.50000 418.400000
6950 21270 21269 1 103.70004 836.800000
10032 21270 21269 1 103.70004 836.800000
21269 21271 21272 1 119.8800511 375.723200
21269 21271 21273 1 120.0200517 532.790560
21272 21271 21273 1 119.8800511 375.723200
21271 21273 21274 1 119.8800511 375.723200
21271 21273 21275 1 120.0200517 532.790560
21274 21273 21275 1 119.8800511 375.723200
21273 21275 21276 1 119.8800511 375.723200
21273 21275 21277 1 120.0200517 532.790560
21276 21275 21277 1 119.8800511 375.723200
21268 21277 21275 1 120.0200517 532.790560
21268 21277 21278 1 119.8800511 375.723200
21275 21277 21278 1 119.8800511 375.723200
21279 21280 21281 1 119.8800511 375.723200
21279 21280 21289 1 119.8800511 375.723200
21281 21280 21289 1 120.0200517 532.790560
21280 21281 21282 1 121.3800518 83.010560
21280 21281 21283 1 120.0200517 532.790560
21282 21281 21283 1 121.3800518 83.010560
2240 21282 6978 1 109.50000 418.400000
2240 21282 11259 1 109.50000 418.400000
2240 21282 21281 1 103.70004 836.800000
6978 21282 11259 1 109.50000 418.400000
6978 21282 21281 1 103.70004 836.800000
11259 21282 21281 1 103.70004 836.800000
21281 21283 21284 1 119.8800511 375.723200
21281 21283 21285 1 120.0200517 532.790560
21284 21283 21285 1 119.8800511 375.723200
21283 21285 21286 1 119.8800511 375.723200
21283 21285 21287 1 120.0200517 532.790560
21286 21285 21287 1 119.8800511 375.723200
21285 21287 21288 1 119.8800511 375.723200
21285 21287 21289 1 120.0200517 532.790560
21288 21287 21289 1 119.8800511 375.723200
21280 21289 21287 1 120.0200517 532.790560
21280 21289 21290 1 119.8800511 375.723200
21287 21289 21290 1 119.8800511 375.723200
21291 21292 21293 1 119.8800511 375.723200
21291 21292 21301 1 119.8800511 375.723200
21293 21292 21301 1 120.0200517 532.790560
21292 21293 21294 1 121.3800518 83.010560
21292 21293 21295 1 120.0200517 532.790560
21294 21293 21295 1 121.3800518 83.010560
3492 21294 3493 1 109.50000 418.400000
3492 21294 7714 1 109.50000 418.400000
3492 21294 21293 1 103.70004 836.800000
3493 21294 7714 1 109.50000 418.400000
3493 21294 21293 1 103.70004 836.800000
7714 21294 21293 1 103.70004 836.800000
21293 21295 21296 1 119.8800511 375.723200
21293 21295 21297 1 120.0200517 532.790560
21296 21295 21297 1 119.8800511 375.723200
21295 21297 21298 1 119.8800511 375.723200
21295 21297 21299 1 120.0200517 532.790560
21298 21297 21299 1 119.8800511 375.723200
21297 21299 21300 1 119.8800511 375.723200
21297 21299 21301 1 120.0200517 532.790560
21300 21299 21301 1 119.8800511 375.723200
21292 21301 21299 1 120.0200517 532.790560
21292 21301 21302 1 119.8800511 375.723200
21299 21301 21302 1 119.8800511 375.723200
21303 21304 21305 1 119.8800511 375.723200
21303 21304 21313 1 119.8800511 375.723200
21305 21304 21313 1 120.0200517 532.790560
21304 21305 21306 1 121.3800518 83.010560
21304 21305 21307 1 120.0200517 532.790560
21306 21305 21307 1 121.3800518 83.010560
5975 21306 7019 1 109.50000 418.400000
5975 21306 7020 1 109.50000 418.400000
5975 21306 21305 1 103.70004 836.800000
7019 21306 7020 1 109.50000 418.400000
7019 21306 21305 1 103.70004 836.800000
7020 21306 21305 1 103.70004 836.800000
21305 21307 21308 1 119.8800511 375.723200
21305 21307 21309 1 120.0200517 532.790560
21308 21307 21309 1 119.8800511 375.723200
21307 21309 21310 1 119.8800511 375.723200
21307 21309 21311 1 120.0200517 532.790560
21310 21309 21311 1 119.8800511 375.723200
21309 21311 21312 1 119.8800511 375.723200
21309 21311 21313 1 120.0200517 532.790560
21312 21311 21313 1 119.8800511 375.723200
21304 21313 21311 1 120.0200517 532.790560
21304 21313 21314 1 119.8800511 375.723200
21311 21313 21314 1 119.8800511 375.723200
21315 21316 21317 1 119.8800511 375.723200
21315 21316 21325 1 119.8800511 375.723200
21317 21316 21325 1 120.0200517 532.790560
21316 21317 21318 1 121.3800518 83.010560
21316 21317 21319 1 120.0200517 532.790560
21318 21317 21319 1 121.3800518 83.010560
1495 21318 4981 1 109.50000 418.400000
1495 21318 11260 1 109.50000 418.400000
1495 21318 21317 1 103.70004 836.800000
4981 21318 11260 1 109.50000 418.400000
4981 21318 21317 1 103.70004 836.800000
11260 21318 21317 1 103.70004 836.800000
21317 21319 21320 1 119.8800511 375.723200
21317 21319 21321 1 120.0200517 532.790560
21320 21319 21321 1 119.8800511 375.723200
21319 21321 21322 1 119.8800511 375.723200
21319 21321 21323 1 120.0200517 532.790560
21322 21321 21323 1 119.8800511 375.723200
21321 21323 21324 1 119.8800511 375.723200
21321 21323 21325 1 120.0200517 532.790560
21324 21323 21325 1 119.8800511 375.723200
21316 21325 21323 1 120.0200517 532.790560
21316 21325 21326 1 119.8800511 375.723200
21323 21325 21326 1 119.8800511 375.723200
21327 21328 21329 1 119.8800511 375.723200
21327 21328 21337 1 119.8800511 375.723200
21329 21328 21337 1 120.0200517 532.790560
21328 21329 21330 1 121.3800518 83.010560
21328 21329 21331 1 120.0200517 532.790560
21330 21329 21331 1 121.3800518 83.010560
5093 21330 5322 1 109.50000 418.400000
5093 21330 7052 1 109.50000 418.400000
5093 21330 21329 1 103.70004 836.800000
5322 21330 7052 1 109.50000 418.400000
5322 21330 21329 1 103.70004 836.800000
7052 21330 21329 1 103.70004 836.800000
21329 21331 21332 1 119.8800511 375.723200
21329 21331 21333 1 120.0200517 532.790560
21332 21331 21333 1 119.8800511 375.723200
21331 21333 21334 1 119.8800511 375.723200
21331 21333 21335 1 120.0200517 532.790560
21334 21333 21335 1 119.8800511 375.723200
21333 21335 21336 1 119.8800511 375.723200
21333 21335 21337 1 120.0200517 532.790560
21336 21335 21337 1 119.8800511 375.723200
21328 21337 21335 1 120.0200517 532.790560
21328 21337 21338 1 119.8800511 375.723200
21335 21337 21338 1 119.8800511 375.723200
21339 21340 21341 1 119.8800511 375.723200
21339 21340 21349 1 119.8800511 375.723200
21341 21340 21349 1 120.0200517 532.790560
21340 21341 21342 1 121.3800518 83.010560
21340 21341 21343 1 120.0200517 532.790560
21342 21341 21343 1 121.3800518 83.010560
7065 21342 7066 1 109.50000 418.400000
7065 21342 11261 1 109.50000 418.400000
7065 21342 21341 1 103.70004 836.800000
7066 21342 11261 1 109.50000 418.400000
7066 21342 21341 1 103.70004 836.800000
11261 21342 21341 1 103.70004 836.800000
21341 21343 21344 1 119.8800511 375.723200
21341 21343 21345 1 120.0200517 532.790560
21344 21343 21345 1 119.8800511 375.723200
21343 21345 21346 1 119.8800511 375.723200
21343 21345 21347 1 120.0200517 532.790560
21346 21345 21347 1 119.8800511 375.723200
21345 21347 21348 1 119.8800511 375.723200
21345 21347 21349 1 120.0200517 532.790560
21348 21347 21349 1 119.8800511 375.723200
21340 21349 21347 1 120.0200517 532.790560
21340 21349 21350 1 119.8800511 375.723200
21347 21349 21350 1 119.8800511 375.723200
21351 21352 21353 1 119.8800511 375.723200
21351 21352 21361 1 119.8800511 375.723200
21353 21352 21361 1 120.0200517 532.790560
21352 21353 21354 1 121.3800518 83.010560
21352 21353 21355 1 120.0200517 532.790560
21354 21353 21355 1 121.3800518 83.010560
4938 21354 5866 1 109.50000 418.400000
4938 21354 7098 1 109.50000 418.400000
4938 21354 21353 1 103.70004 836.800000
5866 21354 7098 1 109.50000 418.400000
5866 21354 21353 1 103.70004 836.800000
7098 21354 21353 1 103.70004 836.800000
21353 21355 21356 1 119.8800511 375.723200
21353 21355 21357 1 120.0200517 532.790560
21356 21355 21357 1 119.8800511 375.723200
21355 21357 21358 1 119.8800511 375.723200
21355 21357 21359 1 120.0200517 532.790560
21358 21357 21359 1 119.8800511 375.723200
21357 21359 21360 1 119.8800511 375.723200
21357 21359 21361 1 120.0200517 532.790560
21360 21359 21361 1 119.8800511 375.723200
21352 21361 21359 1 120.0200517 532.790560
21352 21361 21362 1 119.8800511 375.723200
21359 21361 21362 1 119.8800511 375.723200
21363 21364 21365 1 119.8800511 375.723200
21363 21364 21373 1 119.8800511 375.723200
21365 21364 21373 1 120.0200517 532.790560
21364 21365 21366 1 121.3800518 83.010560
21364 21365 21367 1 120.0200517 532.790560
21366 21365 21367 1 121.3800518 83.010560
4514 21366 4576 1 109.50000 418.400000
4514 21366 11262 1 109.50000 418.400000
4514 21366 21365 1 103.70004 836.800000
4576 21366 11262 1 109.50000 418.400000
4576 21366 21365 1 103.70004 836.800000
11262 21366 21365 1 103.70004 836.800000
21365 21367 21368 1 119.8800511 375.723200
21365 21367 21369 1 120.0200517 532.790560
21368 21367 21369 1 119.8800511 375.723200
21367 21369 21370 1 119.8800511 375.723200
21367 21369 21371 1 120.0200517 532.790560
21370 21369 21371 1 119.8800511 375.723200
21369 21371 21372 1 119.8800511 375.723200
21369 21371 21373 1 120.0200517 532.790560
21372 21371 21373 1 119.8800511 375.723200
21364 21373 21371 1 120.0200517 532.790560
21364 21373 21374 1 119.8800511 375.723200
21371 21373 21374 1 119.8800511 375.723200
21375 21376 21377 1 119.8800511 375.723200
21375 21376 21385 1 119.8800511 375.723200
21377 21376 21385 1 120.0200517 532.790560
21376 21377 21378 1 121.3800518 83.010560
21376 21377 21379 1 120.0200517 532.790560
21378 21377 21379 1 121.3800518 83.010560
5039 21378 7141 1 109.50000 418.400000
5039 21378 7142 1 109.50000 418.400000
5039 21378 21377 1 103.70004 836.800000
7141 21378 7142 1 109.50000 418.400000
7141 21378 21377 1 103.70004 836.800000
7142 21378 21377 1 103.70004 836.800000
21377 21379 21380 1 119.8800511 375.723200
21377 21379 21381 1 120.0200517 532.790560
21380 21379 21381 1 119.8800511 375.723200
21379 21381 21382 1 119.8800511 375.723200
21379 21381 21383 1 120.0200517 532.790560
21382 21381 21383 1 119.8800511 375.723200
21381 21383 21384 1 119.8800511 375.723200
21381 21383 21385 1 120.0200517 532.790560
21384 21383 21385 1 119.8800511 375.723200
21376 21385 21383 1 120.0200517 532.790560
21376 21385 21386 1 119.8800511 375.723200
21383 21385 21386 1 119.8800511 375.723200
21387 21388 21389 1 119.8800511 375.723200
21387 21388 21397 1 119.8800511 375.723200
21389 21388 21397 1 120.0200517 532.790560
21388 21389 21390 1 121.3800518 83.010560
21388 21389 21391 1 120.0200517 532.790560
21390 21389 21391 1 121.3800518 83.010560
4870 21390 7153 1 109.50000 418.400000
4870 21390 7154 1 109.50000 418.400000
4870 21390 21389 1 103.70004 836.800000
7153 21390 7154 1 109.50000 418.400000
7153 21390 21389 1 103.70004 836.800000
7154 21390 21389 1 103.70004 836.800000
21389 21391 21392 1 119.8800511 375.723200
21389 21391 21393 1 120.0200517 532.790560
21392 21391 21393 1 119.8800511 375.723200
21391 21393 21394 1 119.8800511 375.723200
21391 21393 21395 1 120.0200517 532.790560
21394 21393 21395 1 119.8800511 375.723200
21393 21395 21396 1 119.8800511 375.723200
21393 21395 21397 1 120.0200517 532.790560
21396 21395 21397 1 119.8800511 375.723200
21388 21397 21395 1 120.0200517 532.790560
21388 21397 21398 1 119.8800511 375.723200
21395 21397 21398 1 119.8800511 375.723200
21399 21400 21401 1 119.8800511 375.723200
21399 21400 21409 1 119.8800511 375.723200
21401 21400 21409 1 120.0200517 532.790560
21400 21401 21402 1 121.3800518 83.010560
21400 21401 21403 1 120.0200517 532.790560
21402 21401 21403 1 121.3800518 83.010560
1455 21402 7180 1 109.50000 418.400000
1455 21402 11265 1 109.50000 418.400000
1455 21402 21401 1 103.70004 836.800000
7180 21402 11265 1 109.50000 418.400000
7180 21402 21401 1 103.70004 836.800000
11265 21402 21401 1 103.70004 836.800000
21401 21403 21404 1 119.8800511 375.723200
21401 21403 21405 1 120.0200517 532.790560
21404 21403 21405 1 119.8800511 375.723200
21403 21405 21406 1 119.8800511 375.723200
21403 21405 21407 1 120.0200517 532.790560
21406 21405 21407 1 119.8800511 375.723200
21405 21407 21408 1 119.8800511 375.723200
21405 21407 21409 1 120.0200517 532.790560
21408 21407 21409 1 119.8800511 375.723200
21400 21409 21407 1 120.0200517 532.790560
21400 21409 21410 1 119.8800511 375.723200
21407 21409 21410 1 119.8800511 375.723200
21411 21412 21413 1 119.8800511 375.723200
21411 21412 21421 1 119.8800511 375.723200
21413 21412 21421 1 120.0200517 532.790560
21412 21413 21414 1 121.3800518 83.010560
21412 21413 21415 1 120.0200517 532.790560
21414 21413 21415 1 121.3800518 83.010560
1291 21414 1684 1 109.50000 418.400000
1291 21414 7198 1 109.50000 418.400000
1291 21414 21413 1 103.70004 836.800000
1684 21414 7198 1 109.50000 418.400000
1684 21414 21413 1 103.70004 836.800000
7198 21414 21413 1 103.70004 836.800000
21413 21415 21416 1 119.8800511 375.723200
21413 21415 21417 1 120.0200517 532.790560
21416 21415 21417 1 119.8800511 375.723200
21415 21417 21418 1 119.8800511 375.723200
21415 21417 21419 1 120.0200517 532.790560
21418 21417 21419 1 119.8800511 375.723200
21417 21419 21420 1 119.8800511 375.723200
21417 21419 21421 1 120.0200517 532.790560
21420 21419 21421 1 119.8800511 375.723200
21412 21421 21419 1 120.0200517 532.790560
21412 21421 21422 1 119.8800511 375.723200
21419 21421 21422 1 119.8800511 375.723200
21423 21424 21425 1 119.8800511 375.723200
21423 21424 21433 1 119.8800511 375.723200
21425 21424 21433 1 120.0200517 532.790560
21424 21425 21426 1 121.3800518 83.010560
21424 21425 21427 1 120.0200517 532.790560
21426 21425 21427 1 121.3800518 83.010560
1171 21426 7222 1 109.50000 418.400000
1171 21426 7223 1 109.50000 418.400000
1171 21426 21425 1 103.70004 836.800000
7222 21426 7223 1 109.50000 418.400000
7222 21426 21425 1 103.70004 836.800000
7223 21426 21425 1 103.70004 836.800000
21425 21427 21428 1 119.8800511 375.723200
21425 21427 21429 1 120.0200517 532.790560
21428 21427 21429 1 119.8800511 375.723200
21427 21429 21430 1 119.8800511 375.723200
21427 21429 21431 1 120.0200517 532.790560
21430 21429 21431 1 119.8800511 375.723200
21429 21431 21432 1 119.8800511 375.723200
21429 21431 21433 1 120.0200517 532.790560
21432 21431 21433 1 119.8800511 375.723200
21424 21433 21431 1 120.0200517 532.790560
21424 21433 21434 1 119.8800511 375.723200
21431 21433 21434 1 119.8800511 375.723200
21435 21436 21437 1 119.8800511 375.723200
21435 21436 21445 1 119.8800511 375.723200
21437 21436 21445 1 120.0200517 532.790560
21436 21437 21438 1 121.3800518 83.010560
21436 21437 21439 1 120.0200517 532.790560
21438 21437 21439 1 121.3800518 83.010560
1858 21438 6427 1 109.50000 418.400000
1858 21438 7257 1 109.50000 418.400000
1858 21438 21437 1 103.70004 836.800000
6427 21438 7257 1 109.50000 418.400000
6427 21438 21437 1 103.70004 836.800000
7257 21438 21437 1 103.70004 836.800000
21437 21439 21440 1 119.8800511 375.723200
21437 21439 21441 1 120.0200517 532.790560
21440 21439 21441 1 119.8800511 375.723200
21439 21441 21442 1 119.8800511 375.723200
21439 21441 21443 1 120.0200517 532.790560
21442 21441 21443 1 119.8800511 375.723200
21441 21443 21444 1 119.8800511 375.723200
21441 21443 21445 1 120.0200517 532.790560
21444 21443 21445 1 119.8800511 375.723200
21436 21445 21443 1 120.0200517 532.790560
21436 21445 21446 1 119.8800511 375.723200
21443 21445 21446 1 119.8800511 375.723200
21447 21448 21449 1 119.8800511 375.723200
21447 21448 21457 1 119.8800511 375.723200
21449 21448 21457 1 120.0200517 532.790560
21448 21449 21450 1 121.3800518 83.010560
21448 21449 21451 1 120.0200517 532.790560
21450 21449 21451 1 121.3800518 83.010560
868 21450 3372 1 109.50000 418.400000
868 21450 7268 1 109.50000 418.400000
868 21450 21449 1 103.70004 836.800000
3372 21450 7268 1 109.50000 418.400000
3372 21450 21449 1 103.70004 836.800000
7268 21450 21449 1 103.70004 836.800000
21449 21451 21452 1 119.8800511 375.723200
21449 21451 21453 1 120.0200517 532.790560
21452 21451 21453 1 119.8800511 375.723200
21451 21453 21454 1 119.8800511 375.723200
21451 21453 21455 1 120.0200517 532.790560
21454 21453 21455 1 119.8800511 375.723200
21453 21455 21456 1 119.8800511 375.723200
21453 21455 21457 1 120.0200517 532.790560
21456 21455 21457 1 119.8800511 375.723200
21448 21457 21455 1 120.0200517 532.790560
21448 21457 21458 1 119.8800511 375.723200
21455 21457 21458 1 119.8800511 375.723200
21459 21460 21461 1 119.8800511 375.723200
21459 21460 21469 1 119.8800511 375.723200
21461 21460 21469 1 120.0200517 532.790560
21460 21461 21462 1 121.3800518 83.010560
21460 21461 21463 1 120.0200517 532.790560
21462 21461 21463 1 121.3800518 83.010560
285 21462 6031 1 109.50000 418.400000
285 21462 11266 1 109.50000 418.400000
285 21462 21461 1 103.70004 836.800000
6031 21462 11266 1 109.50000 418.400000
6031 21462 21461 1 103.70004 836.800000
11266 21462 21461 1 103.70004 836.800000
21461 21463 21464 1 119.8800511 375.723200
21461 21463 21465 1 120.0200517 532.790560
21464 21463 21465 1 119.8800511 375.723200
21463 21465 21466 1 119.8800511 375.723200
21463 21465 21467 1 120.0200517 532.790560
21466 21465 21467 1 119.8800511 375.723200
21465 21467 21468 1 119.8800511 375.723200
21465 21467 21469 1 120.0200517 532.790560
21468 21467 21469 1 119.8800511 375.723200
21460 21469 21467 1 120.0200517 532.790560
21460 21469 21470 1 119.8800511 375.723200
21467 21469 21470 1 119.8800511 375.723200
21471 21472 21473 1 119.8800511 375.723200
21471 21472 21481 1 119.8800511 375.723200
21473 21472 21481 1 120.0200517 532.790560
21472 21473 21474 1 121.3800518 83.010560
21472 21473 21475 1 120.0200517 532.790560
21474 21473 21475 1 121.3800518 83.010560
1110 21474 2651 1 109.50000 418.400000
1110 21474 2690 1 109.50000 418.400000
1110 21474 21473 1 103.70004 836.800000
2651 21474 2690 1 109.50000 418.400000
2651 21474 21473 1 103.70004 836.800000
2690 21474 21473 1 103.70004 836.800000
21473 21475 21476 1 119.8800511 375.723200
21473 21475 21477 1 120.0200517 532.790560
21476 21475 21477 1 119.8800511 375.723200
21475 21477 21478 1 119.8800511 375.723200
21475 21477 21479 1 120.0200517 532.790560
21478 21477 21479 1 119.8800511 375.723200
21477 21479 21480 1 119.8800511 375.723200
21477 21479 21481 1 120.0200517 532.790560
21480 21479 21481 1 119.8800511 375.723200
21472 21481 21479 1 120.0200517 532.790560
21472 21481 21482 1 119.8800511 375.723200
21479 21481 21482 1 119.8800511 375.723200
21483 21484 21485 1 119.8800511 375.723200
21483 21484 21493 1 119.8800511 375.723200
21485 21484 21493 1 120.0200517 532.790560
21484 21485 21486 1 121.3800518 83.010560
21484 21485 21487 1 120.0200517 532.790560
21486 21485 21487 1 121.3800518 83.010560
3504 21486 6148 1 109.50000 418.400000
3504 21486 11267 1 109.50000 418.400000
3504 21486 21485 1 103.70004 836.800000
6148 21486 11267 1 109.50000 418.400000
6148 21486 21485 1 103.70004 836.800000
11267 21486 21485 1 103.70004 836.800000
21485 21487 21488 1 119.8800511 375.723200
21485 21487 21489 1 120.0200517 532.790560
21488 21487 21489 1 119.8800511 375.723200
21487 21489 21490 1 119.8800511 375.723200
21487 21489 21491 1 120.0200517 532.790560
21490 21489 21491 1 119.8800511 375.723200
21489 21491 21492 1 119.8800511 375.723200
21489 21491 21493 1 120.0200517 532.790560
21492 21491 21493 1 119.8800511 375.723200
21484 21493 21491 1 120.0200517 532.790560
21484 21493 21494 1 119.8800511 375.723200
21491 21493 21494 1 119.8800511 375.723200
21495 21496 21497 1 119.8800511 375.723200
21495 21496 21505 1 119.8800511 375.723200
21497 21496 21505 1 120.0200517 532.790560
21496 21497 21498 1 121.3800518 83.010560
21496 21497 21499 1 120.0200517 532.790560
21498 21497 21499 1 121.3800518 83.010560
3148 21498 7375 1 109.50000 418.400000
3148 21498 7376 1 109.50000 418.400000
3148 21498 21497 1 103.70004 836.800000
7375 21498 7376 1 109.50000 418.400000
7375 21498 21497 1 103.70004 836.800000
7376 21498 21497 1 103.70004 836.800000
21497 21499 21500 1 119.8800511 375.723200
21497 21499 21501 1 120.0200517 532.790560
21500 21499 21501 1 119.8800511 375.723200
21499 21501 21502 1 119.8800511 375.723200
21499 21501 21503 1 120.0200517 532.790560
21502 21501 21503 1 119.8800511 375.723200
21501 21503 21504 1 119.8800511 375.723200
21501 21503 21505 1 120.0200517 532.790560
21504 21503 21505 1 119.8800511 375.723200
21496 21505 21503 1 120.0200517 532.790560
21496 21505 21506 1 119.8800511 375.723200
21503 21505 21506 1 119.8800511 375.723200
2490 21507 2492 1 109.50000 418.400000
2490 21507 4374 1 109.50000 418.400000
2490 21507 21508 1 109.50000 418.400000
2492 21507 4374 1 109.50000 418.400000
2492 21507 21508 1 109.50000 418.400000
4374 21507 21508 1 109.50000 418.400000
21507 21508 21509 1 115.00000 209.200000
3771 21510 5460 1 109.50000 418.400000
3771 21510 11271 1 109.50000 418.400000
3771 21510 21511 1 109.50000 418.400000
5460 21510 11271 1 109.50000 418.400000
5460 21510 21511 1 109.50000 418.400000
11271 21510 21511 1 109.50000 418.400000
21510 21511 21512 1 115.00000 209.200000
7066 21513 7470 1 109.50000 418.400000
7066 21513 11272 1 109.50000 418.400000
7066 21513 21514 1 109.50000 418.400000
7470 21513 11272 1 109.50000 418.400000
7470 21513 21514 1 109.50000 418.400000
11272 21513 21514 1 109.50000 418.400000
21513 21514 21515 1 115.00000 209.200000
1476 21516 4692 1 109.50000 418.400000
1476 21516 7472 1 109.50000 418.400000
1476 21516 21517 1 109.50000 418.400000
4692 21516 7472 1 109.50000 418.400000
4692 21516 21517 1 109.50000 418.400000
7472 21516 21517 1 109.50000 418.400000
21516 21517 21518 1 115.00000 209.200000
5288 21519 7485 1 109.50000 418.400000
5288 21519 7486 1 109.50000 418.400000
5288 21519 21520 1 109.50000 418.400000
7485 21519 7486 1 109.50000 418.400000
7485 21519 21520 1 109.50000 418.400000
7486 21519 21520 1 109.50000 418.400000
21519 21520 21521 1 115.00000 209.200000
3479 21522 7341 1 109.50000 418.400000
3479 21522 7342 1 109.50000 418.400000
3479 21522 21523 1 109.50000 418.400000
7341 21522 7342 1 109.50000 418.400000
7341 21522 21523 1 109.50000 418.400000
7342 21522 21523 1 109.50000 418.400000
21522 21523 21524 1 115.00000 209.200000
2746 21525 4785 1 109.50000 418.400000
2746 21525 7497 1 109.50000 418.400000
2746 21525 21526 1 109.50000 418.400000
4785 21525 7497 1 109.50000 418.400000
4785 21525 21526 1 109.50000 418.400000
7497 21525 21526 1 109.50000 418.400000
21525 21526 21527 1 115.00000 209.200000
3106 21528 5095 1 109.50000 418.400000
3106 21528 5501 1 109.50000 418.400000
3106 21528 21529 1 109.50000 418.400000
5095 21528 5501 1 109.50000 418.400000
5095 21528 21529 1 109.50000 418.400000
5501 21528 21529 1 109.50000 418.400000
21528 21529 21530 1 115.00000 209.200000
5834 21531 7510 1 109.50000 418.400000
5834 21531 11273 1 109.50000 418.400000
5834 21531 21532 1 109.50000 418.400000
7510 21531 11273 1 109.50000 418.400000
7510 21531 21532 1 109.50000 418.400000
11273 21531 21532 1 109.50000 418.400000
21531 21532 21533 1 115.00000 209.200000
7528 21534 7529 1 109.50000 418.400000
7528 21534 11274 1 109.50000 418.400000
7528 21534 21535 1 109.50000 418.400000
7529 21534 11274 1 109.50000 418.400000
7529 21534 21535 1 109.50000 418.400000
11274 21534 21535 1 109.50000 418.400000
21534 21535 21536 1 115.00000 209.200000
5845 21537 7559 1 109.50000 418.400000
5845 21537 11275 1 109.50000 418.400000
5845 21537 21538 1 109.50000 418.400000
7559 21537 11275 1 109.50000 418.400000
7559 21537 21538 1 109.50000 418.400000
11275 21537 21538 1 109.50000 418.400000
21537 21538 21539 1 115.00000 209.200000
6486 21540 7363 1 109.50000 418.400000
6486 21540 11276 1 109.50000 418.400000
6486 21540 21541 1 109.50000 418.400000
7363 21540 11276 1 109.50000 418.400000
7363 21540 21541 1 109.50000 418.400000
11276 21540 21541 1 109.50000 418.400000
21540 21541 21542 1 115.00000 209.200000
7624 21543 7625 1 109.50000 418.400000
7624 21543 7626 1 109.50000 418.400000
7624 21543 21544 1 109.50000 418.400000
7625 21543 7626 1 109.50000 418.400000
7625 21543 21544 1 109.50000 418.400000
7626 21543 21544 1 109.50000 418.400000
21543 21544 21545 1 115.00000 209.200000
7209 21546 7627 1 109.50000 418.400000
7209 21546 7628 1 109.50000 418.400000
7209 21546 21547 1 109.50000 418.400000
7627 21546 7628 1 109.50000 418.400000
7627 21546 21547 1 109.50000 418.400000
7628 21546 21547 1 109.50000 418.400000
21546 21547 21548 1 115.00000 209.200000
3189 21549 6057 1 109.50000 418.400000
3189 21549 11277 1 109.50000 418.400000
3189 21549 21550 1 109.50000 418.400000
6057 21549 11277 1 109.50000 418.400000
6057 21549 21550 1 109.50000 418.400000
11277 21549 21550 1 109.50000 418.400000
21549 21550 21551 1 115.00000 209.200000
3035 21552 7636 1 109.50000 418.400000
3035 21552 11278 1 109.50000 418.400000
3035 21552 21553 1 109.50000 418.400000
7636 21552 11278 1 109.50000 418.400000
7636 21552 21553 1 109.50000 418.400000
11278 21552 21553 1 109.50000 418.400000
21552 21553 21554 1 115.00000 209.200000
7661 21555 7662 1 109.50000 418.400000
7661 21555 11279 1 109.50000 418.400000
7661 21555 21556 1 109.50000 418.400000
7662 21555 11279 1 109.50000 418.400000
7662 21555 21556 1 109.50000 418.400000
11279 21555 21556 1 109.50000 418.400000
21555 21556 21557 1 115.00000 209.200000
6574 21558 7665 1 109.50000 418.400000
6574 21558 7666 1 109.50000 418.400000
6574 21558 21559 1 109.50000 418.400000
7665 21558 7666 1 109.50000 418.400000
7665 21558 21559 1 109.50000 418.400000
7666 21558 21559 1 109.50000 418.400000
21558 21559 21560 1 115.00000 209.200000
6379 21561 7686 1 109.50000 418.400000
6379 21561 11281 1 109.50000 418.400000
6379 21561 21562 1 109.50000 418.400000
7686 21561 11281 1 109.50000 418.400000
7686 21561 21562 1 109.50000 418.400000
11281 21561 21562 1 109.50000 418.400000
21561 21562 21563 1 115.00000 209.200000
5041 21564 7687 1 109.50000 418.400000
5041 21564 7688 1 109.50000 418.400000
5041 21564 21565 1 109.50000 418.400000
7687 21564 7688 1 109.50000 418.400000
7687 21564 21565 1 109.50000 418.400000
7688 21564 21565 1 109.50000 418.400000
21564 21565 21566 1 115.00000 209.200000
7711 21567 7712 1 109.50000 418.400000
7711 21567 9111 1 109.50000 418.400000
7711 21567 21568 1 109.50000 418.400000
7712 21567 9111 1 109.50000 418.400000
7712 21567 21568 1 109.50000 418.400000
9111 21567 21568 1 109.50000 418.400000
21567 21568 21569 1 115.00000 209.200000
7732 21570 7733 1 109.50000 418.400000
7732 21570 7734 1 109.50000 418.400000
7732 21570 21571 1 109.50000 418.400000
7733 21570 7734 1 109.50000 418.400000
7733 21570 21571 1 109.50000 418.400000
7734 21570 21571 1 109.50000 418.400000
21570 21571 21572 1 115.00000 209.200000
6364 21573 7769 1 109.50000 418.400000
6364 21573 7770 1 109.50000 418.400000
6364 21573 21574 1 109.50000 418.400000
7769 21573 7770 1 109.50000 418.400000
7769 21573 21574 1 109.50000 418.400000
7770 21573 21574 1 109.50000 418.400000
21573 21574 21575 1 115.00000 209.200000
383 21576 1830 1 109.50000 418.400000
383 21576 7800 1 109.50000 418.400000
383 21576 21577 1 109.50000 418.400000
1830 21576 7800 1 109.50000 418.400000
1830 21576 21577 1 109.50000 418.400000
7800 21576 21577 1 109.50000 418.400000
21576 21577 21578 1 115.00000 209.200000
3549 21579 7805 1 109.50000 418.400000
3549 21579 7806 1 109.50000 418.400000
3549 21579 21580 1 109.50000 418.400000
7805 21579 7806 1 109.50000 418.400000
7805 21579 21580 1 109.50000 418.400000
7806 21579 21580 1 109.50000 418.400000
21579 21580 21581 1 115.00000 209.200000
7812 21582 7813 1 109.50000 418.400000
7812 21582 11282 1 109.50000 418.400000
7812 21582 21583 1 109.50000 418.400000
7813 21582 11282 1 109.50000 418.400000
7813 21582 21583 1 109.50000 418.400000
11282 21582 21583 1 109.50000 418.400000
21582 21583 21584 1 115.00000 209.200000
4771 21585 7099 1 109.50000 418.400000
4771 21585 7842 1 109.50000 418.400000
4771 21585 21586 1 109.50000 418.400000
7099 21585 7842 1 109.50000 418.400000
7099 21585 21586 1 109.50000 418.400000
7842 21585 21586 1 109.50000 418.400000
21585 21586 21587 1 115.00000 209.200000
3425 21588 7859 1 109.50000 418.400000
3425 21588 11283 1 109.50000 418.400000
3425 21588 21589 1 109.50000 418.400000
7859 21588 11283 1 109.50000 418.400000
7859 21588 21589 1 109.50000 418.400000
11283 21588 21589 1 109.50000 418.400000
21588 21589 21590 1 115.00000 209.200000
2419 21591 3922 1 109.50000 418.400000
2419 21591 7908 1 109.50000 418.400000
2419 21591 21592 1 109.50000 418.400000
3922 21591 7908 1 109.50000 418.400000
3922 21591 21592 1 109.50000 418.400000
7908 21591 21592 1 109.50000 418.400000
21591 21592 21593 1 115.00000 209.200000
2899 21594 7932 1 109.50000 418.400000
2899 21594 7933 1 109.50000 418.400000
2899 21594 21595 1 109.50000 418.400000
7932 21594 7933 1 109.50000 418.400000
7932 21594 21595 1 109.50000 418.400000
7933 21594 21595 1 109.50000 418.400000
21594 21595 21596 1 115.00000 209.200000
4207 21597 7945 1 109.50000 418.400000
4207 21597 11284 1 109.50000 418.400000
4207 21597 21598 1 109.50000 418.400000
7945 21597 11284 1 109.50000 418.400000
7945 21597 21598 1 109.50000 418.400000
11284 21597 21598 1 109.50000 418.400000
21597 21598 21599 1 115.00000 209.200000
181 21600 6515 1 109.50000 418.400000
181 21600 7956 1 109.50000 418.400000
181 21600 21601 1 109.50000 418.400000
6515 21600 7956 1 109.50000 418.400000
6515 21600 21601 1 109.50000 418.400000
7956 21600 21601 1 109.50000 418.400000
21600 21601 21602 1 115.00000 209.200000
7580 21603 9549 1 109.50000 418.400000
7580 21603 11285 1 109.50000 418.400000
7580 21603 21604 1 109.50000 418.400000
9549 21603 11285 1 109.50000 418.400000
9549 21603 21604 1 109.50000 418.400000
11285 21603 21604 1 109.50000 418.400000
21603 21604 21605 1 115.00000 209.200000
4607 21606 4608 1 109.50000 418.400000
4607 21606 8045 1 109.50000 418.400000
4607 21606 21607 1 109.50000 418.400000
4608 21606 8045 1 109.50000 418.400000
4608 21606 21607 1 109.50000 418.400000
8045 21606 21607 1 109.50000 418.400000
21606 21607 21608 1 115.00000 209.200000
4023 21609 5727 1 109.50000 418.400000
4023 21609 8081 1 109.50000 418.400000
4023 21609 21610 1 109.50000 418.400000
5727 21609 8081 1 109.50000 418.400000
5727 21609 21610 1 109.50000 418.400000
8081 21609 21610 1 109.50000 418.400000
21609 21610 21611 1 115.00000 209.200000
8089 21612 8090 1 109.50000 418.400000
8089 21612 10514 1 109.50000 418.400000
8089 21612 21613 1 109.50000 418.400000
8090 21612 10514 1 109.50000 418.400000
8090 21612 21613 1 109.50000 418.400000
10514 21612 21613 1 109.50000 418.400000
21612 21613 21614 1 115.00000 209.200000
8091 21615 8092 1 109.50000 418.400000
8091 21615 8093 1 109.50000 418.400000
8091 21615 21616 1 109.50000 418.400000
8092 21615 8093 1 109.50000 418.400000
8092 21615 21616 1 109.50000 418.400000
8093 21615 21616 1 109.50000 418.400000
21615 21616 21617 1 115.00000 209.200000
4236 21618 8106 1 109.50000 418.400000
4236 21618 9180 1 109.50000 418.400000
4236 21618 21619 1 109.50000 418.400000
8106 21618 9180 1 109.50000 418.400000
8106 21618 21619 1 109.50000 418.400000
9180 21618 21619 1 109.50000 418.400000
21618 21619 21620 1 115.00000 209.200000
8172 21621 8173 1 109.50000 418.400000
8172 21621 8174 1 109.50000 418.400000
8172 21621 21622 1 109.50000 418.400000
8173 21621 8174 1 109.50000 418.400000
8173 21621 21622 1 109.50000 418.400000
8174 21621 21622 1 109.50000 418.400000
21621 21622 21623 1 115.00000 209.200000
5352 21624 8237 1 109.50000 418.400000
5352 21624 8373 1 109.50000 418.400000
5352 21624 21625 1 109.50000 418.400000
8237 21624 8373 1 109.50000 418.400000
8237 21624 21625 1 109.50000 418.400000
8373 21624 21625 1 109.50000 418.400000
21624 21625 21626 1 115.00000 209.200000
4516 21627 6448 1 109.50000 418.400000
4516 21627 8246 1 109.50000 418.400000
4516 21627 21628 1 109.50000 418.400000
6448 21627 8246 1 109.50000 418.400000
6448 21627 21628 1 109.50000 418.400000
8246 21627 21628 1 109.50000 418.400000
21627 21628 21629 1 115.00000 209.200000
2587 21630 5183 1 109.50000 418.400000
2587 21630 8262 1 109.50000 418.400000
2587 21630 21631 1 109.50000 418.400000
5183 21630 8262 1 109.50000 418.400000
5183 21630 21631 1 109.50000 418.400000
8262 21630 21631 1 109.50000 418.400000
21630 21631 21632 1 115.00000 209.200000
4707 21633 5374 1 109.50000 418.400000
4707 21633 7666 1 109.50000 418.400000
4707 21633 21634 1 109.50000 418.400000
5374 21633 7666 1 109.50000 418.400000
5374 21633 21634 1 109.50000 418.400000
7666 21633 21634 1 109.50000 418.400000
21633 21634 21635 1 115.00000 209.200000
6 21636 7818 1 109.50000 418.400000
6 21636 7819 1 109.50000 418.400000
6 21636 21637 1 109.50000 418.400000
7818 21636 7819 1 109.50000 418.400000
7818 21636 21637 1 109.50000 418.400000
7819 21636 21637 1 109.50000 418.400000
21636 21637 21638 1 115.00000 209.200000
5299 21639 6666 1 109.50000 418.400000
5299 21639 8298 1 109.50000 418.400000
5299 21639 21640 1 109.50000 418.400000
6666 21639 8298 1 109.50000 418.400000
6666 21639 21640 1 109.50000 418.400000
8298 21639 21640 1 109.50000 418.400000
21639 21640 21641 1 115.00000 209.200000
5463 21642 8331 1 109.50000 418.400000
5463 21642 8332 1 109.50000 418.400000
5463 21642 21643 1 109.50000 418.400000
8331 21642 8332 1 109.50000 418.400000
8331 21642 21643 1 109.50000 418.400000
8332 21642 21643 1 109.50000 418.400000
21642 21643 21644 1 115.00000 209.200000
5998 21645 7217 1 109.50000 418.400000
5998 21645 8354 1 109.50000 418.400000
5998 21645 21646 1 109.50000 418.400000
7217 21645 8354 1 109.50000 418.400000
7217 21645 21646 1 109.50000 418.400000
8354 21645 21646 1 109.50000 418.400000
21645 21646 21647 1 115.00000 209.200000
8368 21648 8369 1 109.50000 418.400000
8368 21648 8370 1 109.50000 418.400000
8368 21648 21649 1 109.50000 418.400000
8369 21648 8370 1 109.50000 418.400000
8369 21648 21649 1 109.50000 418.400000
8370 21648 21649 1 109.50000 418.400000
21648 21649 21650 1 115.00000 209.200000
4817 21651 7219 1 109.50000 418.400000
4817 21651 8381 1 109.50000 418.400000
4817 21651 21652 1 109.50000 418.400000
7219 21651 8381 1 109.50000 418.400000
7219 21651 21652 1 109.50000 418.400000
8381 21651 21652 1 109.50000 418.400000
21651 21652 21653 1 115.00000 209.200000
7805 21654 8404 1 109.50000 418.400000
7805 21654 8405 1 109.50000 418.400000
7805 21654 21655 1 109.50000 418.400000
8404 21654 8405 1 109.50000 418.400000
8404 21654 21655 1 109.50000 418.400000
8405 21654 21655 1 109.50000 418.400000
21654 21655 21656 1 115.00000 209.200000
8473 21657 8474 1 109.50000 418.400000
8473 21657 8829 1 109.50000 418.400000
8473 21657 21658 1 109.50000 418.400000
8474 21657 8829 1 109.50000 418.400000
8474 21657 21658 1 109.50000 418.400000
8829 21657 21658 1 109.50000 418.400000
21657 21658 21659 1 115.00000 209.200000
1137 21660 4896 1 109.50000 418.400000
1137 21660 8492 1 109.50000 418.400000
1137 21660 21661 1 109.50000 418.400000
4896 21660 8492 1 109.50000 418.400000
4896 21660 21661 1 109.50000 418.400000
8492 21660 21661 1 109.50000 418.400000
21660 21661 21662 1 115.00000 209.200000
3914 21663 4325 1 109.50000 418.400000
3914 21663 6721 1 109.50000 418.400000
3914 21663 21664 1 109.50000 418.400000
4325 21663 6721 1 109.50000 418.400000
4325 21663 21664 1 109.50000 418.400000
6721 21663 21664 1 109.50000 418.400000
21663 21664 21665 1 115.00000 209.200000
3773 21666 8511 1 109.50000 418.400000
3773 21666 8512 1 109.50000 418.400000
3773 21666 21667 1 109.50000 418.400000
8511 21666 8512 1 109.50000 418.400000
8511 21666 21667 1 109.50000 418.400000
8512 21666 21667 1 109.50000 418.400000
21666 21667 21668 1 115.00000 209.200000
1701 21669 4553 1 109.50000 418.400000
1701 21669 8520 1 109.50000 418.400000
1701 21669 21670 1 109.50000 418.400000
4553 21669 8520 1 109.50000 418.400000
4553 21669 21670 1 109.50000 418.400000
8520 21669 21670 1 109.50000 418.400000
21669 21670 21671 1 115.00000 209.200000
5440 21672 8573 1 109.50000 418.400000
5440 21672 8574 1 109.50000 418.400000
5440 21672 21673 1 109.50000 418.400000
8573 21672 8574 1 109.50000 418.400000
8573 21672 21673 1 109.50000 418.400000
8574 21672 21673 1 109.50000 418.400000
21672 21673 21674 1 115.00000 209.200000
8634 21675 8635 1 109.50000 418.400000
8634 21675 8636 1 109.50000 418.400000
8634 21675 21676 1 109.50000 418.400000
8635 21675 8636 1 109.50000 418.400000
8635 21675 21676 1 109.50000 418.400000
8636 21675 21676 1 109.50000 418.400000
21675 21676 21677 1 115.00000 209.200000
6899 21678 8647 1 109.50000 418.400000
6899 21678 8648 1 109.50000 418.400000
6899 21678 21679 1 109.50000 418.400000
8647 21678 8648 1 109.50000 418.400000
8647 21678 21679 1 109.50000 418.400000
8648 21678 21679 1 109.50000 418.400000
21678 21679 21680 1 115.00000 209.200000
3478 21681 7440 1 109.50000 418.400000
3478 21681 8672 1 109.50000 418.400000
3478 21681 21682 1 109.50000 418.400000
7440 21681 8672 1 109.50000 418.400000
7440 21681 21682 1 109.50000 418.400000
8672 21681 21682 1 109.50000 418.400000
21681 21682 21683 1 115.00000 209.200000
6932 21684 8760 1 109.50000 418.400000
6932 21684 8761 1 109.50000 418.400000
6932 21684 21685 1 109.50000 418.400000
8760 21684 8761 1 109.50000 418.400000
8760 21684 21685 1 109.50000 418.400000
8761 21684 21685 1 109.50000 418.400000
21684 21685 21686 1 115.00000 209.200000
4330 21687 6695 1 109.50000 418.400000
4330 21687 8777 1 109.50000 418.400000
4330 21687 21688 1 109.50000 418.400000
6695 21687 8777 1 109.50000 418.400000
6695 21687 21688 1 109.50000 418.400000
8777 21687 21688 1 109.50000 418.400000
21687 21688 21689 1 115.00000 209.200000
7218 21690 8371 1 109.50000 418.400000
7218 21690 8813 1 109.50000 418.400000
7218 21690 21691 1 109.50000 418.400000
8371 21690 8813 1 109.50000 418.400000
8371 21690 21691 1 109.50000 418.400000
8813 21690 21691 1 109.50000 418.400000
21690 21691 21692 1 115.00000 209.200000
1774 21693 7441 1 109.50000 418.400000
1774 21693 8198 1 109.50000 418.400000
1774 21693 21694 1 109.50000 418.400000
7441 21693 8198 1 109.50000 418.400000
7441 21693 21694 1 109.50000 418.400000
8198 21693 21694 1 109.50000 418.400000
21693 21694 21695 1 115.00000 209.200000
4894 21696 8864 1 109.50000 418.400000
4894 21696 8865 1 109.50000 418.400000
4894 21696 21697 1 109.50000 418.400000
8864 21696 8865 1 109.50000 418.400000
8864 21696 21697 1 109.50000 418.400000
8865 21696 21697 1 109.50000 418.400000
21696 21697 21698 1 115.00000 209.200000
799 21699 1269 1 109.50000 418.400000
799 21699 8876 1 109.50000 418.400000
799 21699 21700 1 109.50000 418.400000
1269 21699 8876 1 109.50000 418.400000
1269 21699 21700 1 109.50000 418.400000
8876 21699 21700 1 109.50000 418.400000
21699 21700 21701 1 115.00000 209.200000
3525 21702 5307 1 109.50000 418.400000
3525 21702 8877 1 109.50000 418.400000
3525 21702 21703 1 109.50000 418.400000
5307 21702 8877 1 109.50000 418.400000
5307 21702 21703 1 109.50000 418.400000
8877 21702 21703 1 109.50000 418.400000
21702 21703 21704 1 115.00000 209.200000
6836 21705 8237 1 109.50000 418.400000
6836 21705 8908 1 109.50000 418.400000
6836 21705 21706 1 109.50000 418.400000
8237 21705 8908 1 109.50000 418.400000
8237 21705 21706 1 109.50000 418.400000
8908 21705 21706 1 109.50000 418.400000
21705 21706 21707 1 115.00000 209.200000
3494 21708 5256 1 109.50000 418.400000
3494 21708 8913 1 109.50000 418.400000
3494 21708 21709 1 109.50000 418.400000
5256 21708 8913 1 109.50000 418.400000
5256 21708 21709 1 109.50000 418.400000
8913 21708 21709 1 109.50000 418.400000
21708 21709 21710 1 115.00000 209.200000
3922 21711 3923 1 109.50000 418.400000
3922 21711 8923 1 109.50000 418.400000
3922 21711 21712 1 109.50000 418.400000
3923 21711 8923 1 109.50000 418.400000
3923 21711 21712 1 109.50000 418.400000
8923 21711 21712 1 109.50000 418.400000
21711 21712 21713 1 115.00000 209.200000
6310 21714 6568 1 109.50000 418.400000
6310 21714 8942 1 109.50000 418.400000
6310 21714 21715 1 109.50000 418.400000
6568 21714 8942 1 109.50000 418.400000
6568 21714 21715 1 109.50000 418.400000
8942 21714 21715 1 109.50000 418.400000
21714 21715 21716 1 115.00000 209.200000
7288 21717 8084 1 109.50000 418.400000
7288 21717 8961 1 109.50000 418.400000
7288 21717 21718 1 109.50000 418.400000
8084 21717 8961 1 109.50000 418.400000
8084 21717 21718 1 109.50000 418.400000
8961 21717 21718 1 109.50000 418.400000
21717 21718 21719 1 115.00000 209.200000
3333 21720 3930 1 109.50000 418.400000
3333 21720 8975 1 109.50000 418.400000
3333 21720 21721 1 109.50000 418.400000
3930 21720 8975 1 109.50000 418.400000
3930 21720 21721 1 109.50000 418.400000
8975 21720 21721 1 109.50000 418.400000
21720 21721 21722 1 115.00000 209.200000
3845 21723 4340 1 109.50000 418.400000
3845 21723 9010 1 109.50000 418.400000
3845 21723 21724 1 109.50000 418.400000
4340 21723 9010 1 109.50000 418.400000
4340 21723 21724 1 109.50000 418.400000
9010 21723 21724 1 109.50000 418.400000
21723 21724 21725 1 115.00000 209.200000
75 21726 9011 1 109.50000 418.400000
75 21726 9012 1 109.50000 418.400000
75 21726 21727 1 109.50000 418.400000
9011 21726 9012 1 109.50000 418.400000
9011 21726 21727 1 109.50000 418.400000
9012 21726 21727 1 109.50000 418.400000
21726 21727 21728 1 115.00000 209.200000
5344 21729 9024 1 109.50000 418.400000
5344 21729 9025 1 109.50000 418.400000
5344 21729 21730 1 109.50000 418.400000
9024 21729 9025 1 109.50000 418.400000
9024 21729 21730 1 109.50000 418.400000
9025 21729 21730 1 109.50000 418.400000
21729 21730 21731 1 115.00000 209.200000
3443 21732 8413 1 109.50000 418.400000
3443 21732 9048 1 109.50000 418.400000
3443 21732 21733 1 109.50000 418.400000
8413 21732 9048 1 109.50000 418.400000
8413 21732 21733 1 109.50000 418.400000
9048 21732 21733 1 109.50000 418.400000
21732 21733 21734 1 115.00000 209.200000
9088 21735 9089 1 109.50000 418.400000
9088 21735 9090 1 109.50000 418.400000
9088 21735 21736 1 109.50000 418.400000
9089 21735 9090 1 109.50000 418.400000
9089 21735 21736 1 109.50000 418.400000
9090 21735 21736 1 109.50000 418.400000
21735 21736 21737 1 115.00000 209.200000
74 21738 9103 1 109.50000 418.400000
74 21738 9104 1 109.50000 418.400000
74 21738 21739 1 109.50000 418.400000
9103 21738 9104 1 109.50000 418.400000
9103 21738 21739 1 109.50000 418.400000
9104 21738 21739 1 109.50000 418.400000
21738 21739 21740 1 115.00000 209.200000
3223 21741 9139 1 109.50000 418.400000
3223 21741 9140 1 109.50000 418.400000
3223 21741 21742 1 109.50000 418.400000
9139 21741 9140 1 109.50000 418.400000
9139 21741 21742 1 109.50000 418.400000
9140 21741 21742 1 109.50000 418.400000
21741 21742 21743 1 115.00000 209.200000
3880 21744 9143 1 109.50000 418.400000
3880 21744 9144 1 109.50000 418.400000
3880 21744 21745 1 109.50000 418.400000
9143 21744 9144 1 109.50000 418.400000
9143 21744 21745 1 109.50000 418.400000
9144 21744 21745 1 109.50000 418.400000
21744 21745 21746 1 115.00000 209.200000
5216 21747 7142 1 109.50000 418.400000
5216 21747 7842 1 109.50000 418.400000
5216 21747 21748 1 109.50000 418.400000
7142 21747 7842 1 109.50000 418.400000
7142 21747 21748 1 109.50000 418.400000
7842 21747 21748 1 109.50000 418.400000
21747 21748 21749 1 115.00000 209.200000
6073 21750 6173 1 109.50000 418.400000
6073 21750 9168 1 109.50000 418.400000
6073 21750 21751 1 109.50000 418.400000
6173 21750 9168 1 109.50000 418.400000
6173 21750 21751 1 109.50000 418.400000
9168 21750 21751 1 109.50000 418.400000
21750 21751 21752 1 115.00000 209.200000
4391 21753 4392 1 109.50000 418.400000
4391 21753 7180 1 109.50000 418.400000
4391 21753 21754 1 109.50000 418.400000
4392 21753 7180 1 109.50000 418.400000
4392 21753 21754 1 109.50000 418.400000
7180 21753 21754 1 109.50000 418.400000
21753 21754 21755 1 115.00000 209.200000
9189 21756 9190 1 109.50000 418.400000
9189 21756 9191 1 109.50000 418.400000
9189 21756 21757 1 109.50000 418.400000
9190 21756 9191 1 109.50000 418.400000
9190 21756 21757 1 109.50000 418.400000
9191 21756 21757 1 109.50000 418.400000
21756 21757 21758 1 115.00000 209.200000
4691 21759 5963 1 109.50000 418.400000
4691 21759 5965 1 109.50000 418.400000
4691 21759 21760 1 109.50000 418.400000
5963 21759 5965 1 109.50000 418.400000
5963 21759 21760 1 109.50000 418.400000
5965 21759 21760 1 109.50000 418.400000
21759 21760 21761 1 115.00000 209.200000
6350 21762 6380 1 109.50000 418.400000
6350 21762 9254 1 109.50000 418.400000
6350 21762 21763 1 109.50000 418.400000
6380 21762 9254 1 109.50000 418.400000
6380 21762 21763 1 109.50000 418.400000
9254 21762 21763 1 109.50000 418.400000
21762 21763 21764 1 115.00000 209.200000
1889 21765 7433 1 109.50000 418.400000
1889 21765 9269 1 109.50000 418.400000
1889 21765 21766 1 109.50000 418.400000
7433 21765 9269 1 109.50000 418.400000
7433 21765 21766 1 109.50000 418.400000
9269 21765 21766 1 109.50000 418.400000
21765 21766 21767 1 115.00000 209.200000
3101 21768 7657 1 109.50000 418.400000
3101 21768 9284 1 109.50000 418.400000
3101 21768 21769 1 109.50000 418.400000
7657 21768 9284 1 109.50000 418.400000
7657 21768 21769 1 109.50000 418.400000
9284 21768 21769 1 109.50000 418.400000
21768 21769 21770 1 115.00000 209.200000
3220 21771 8389 1 109.50000 418.400000
3220 21771 9286 1 109.50000 418.400000
3220 21771 21772 1 109.50000 418.400000
8389 21771 9286 1 109.50000 418.400000
8389 21771 21772 1 109.50000 418.400000
9286 21771 21772 1 109.50000 418.400000
21771 21772 21773 1 115.00000 209.200000
8368 21774 9054 1 109.50000 418.400000
8368 21774 9348 1 109.50000 418.400000
8368 21774 21775 1 109.50000 418.400000
9054 21774 9348 1 109.50000 418.400000
9054 21774 21775 1 109.50000 418.400000
9348 21774 21775 1 109.50000 418.400000
21774 21775 21776 1 115.00000 209.200000
845 21777 3628 1 109.50000 418.400000
845 21777 5348 1 109.50000 418.400000
845 21777 21778 1 109.50000 418.400000
3628 21777 5348 1 109.50000 418.400000
3628 21777 21778 1 109.50000 418.400000
5348 21777 21778 1 109.50000 418.400000
21777 21778 21779 1 115.00000 209.200000
232 21780 6232 1 109.50000 418.400000
232 21780 9388 1 109.50000 418.400000
232 21780 21781 1 109.50000 418.400000
6232 21780 9388 1 109.50000 418.400000
6232 21780 21781 1 109.50000 418.400000
9388 21780 21781 1 109.50000 418.400000
21780 21781 21782 1 115.00000 209.200000
4425 21783 9506 1 109.50000 418.400000
4425 21783 10887 1 109.50000 418.400000
4425 21783 21784 1 109.50000 418.400000
9506 21783 10887 1 109.50000 418.400000
9506 21783 21784 1 109.50000 418.400000
10887 21783 21784 1 109.50000 418.400000
21783 21784 21785 1 115.00000 209.200000
7200 21786 7301 1 109.50000 418.400000
7200 21786 9520 1 109.50000 418.400000
7200 21786 21787 1 109.50000 418.400000
7301 21786 9520 1 109.50000 418.400000
7301 21786 21787 1 109.50000 418.400000
9520 21786 21787 1 109.50000 418.400000
21786 21787 21788 1 115.00000 209.200000
8011 21789 9479 1 109.50000 418.400000
8011 21789 9526 1 109.50000 418.400000
8011 21789 21790 1 109.50000 418.400000
9479 21789 9526 1 109.50000 418.400000
9479 21789 21790 1 109.50000 418.400000
9526 21789 21790 1 109.50000 418.400000
21789 21790 21791 1 115.00000 209.200000
8658 21792 9601 1 109.50000 418.400000
8658 21792 9602 1 109.50000 418.400000
8658 21792 21793 1 109.50000 418.400000
9601 21792 9602 1 109.50000 418.400000
9601 21792 21793 1 109.50000 418.400000
9602 21792 21793 1 109.50000 418.400000
21792 21793 21794 1 115.00000 209.200000
7399 21795 7490 1 109.50000 418.400000
7399 21795 9606 1 109.50000 418.400000
7399 21795 21796 1 109.50000 418.400000
7490 21795 9606 1 109.50000 418.400000
7490 21795 21796 1 109.50000 418.400000
9606 21795 21796 1 109.50000 418.400000
21795 21796 21797 1 115.00000 209.200000
205 21798 207 1 109.50000 418.400000
205 21798 4963 1 109.50000 418.400000
205 21798 21799 1 109.50000 418.400000
207 21798 4963 1 109.50000 418.400000
207 21798 21799 1 109.50000 418.400000
4963 21798 21799 1 109.50000 418.400000
21798 21799 21800 1 115.00000 209.200000
6558 21801 7278 1 109.50000 418.400000
6558 21801 9648 1 109.50000 418.400000
6558 21801 21802 1 109.50000 418.400000
7278 21801 9648 1 109.50000 418.400000
7278 21801 21802 1 109.50000 418.400000
9648 21801 21802 1 109.50000 418.400000
21801 21802 21803 1 115.00000 209.200000
3885 21804 5130 1 109.50000 418.400000
3885 21804 9653 1 109.50000 418.400000
3885 21804 21805 1 109.50000 418.400000
5130 21804 9653 1 109.50000 418.400000
5130 21804 21805 1 109.50000 418.400000
9653 21804 21805 1 109.50000 418.400000
21804 21805 21806 1 115.00000 209.200000
8483 21807 9270 1 109.50000 418.400000
8483 21807 9271 1 109.50000 418.400000
8483 21807 21808 1 109.50000 418.400000
9270 21807 9271 1 109.50000 418.400000
9270 21807 21808 1 109.50000 418.400000
9271 21807 21808 1 109.50000 418.400000
21807 21808 21809 1 115.00000 209.200000
2455 21810 8091 1 109.50000 418.400000
2455 21810 9654 1 109.50000 418.400000
2455 21810 21811 1 109.50000 418.400000
8091 21810 9654 1 109.50000 418.400000
8091 21810 21811 1 109.50000 418.400000
9654 21810 21811 1 109.50000 418.400000
21810 21811 21812 1 115.00000 209.200000
4553 21813 4556 1 109.50000 418.400000
4553 21813 9672 1 109.50000 418.400000
4553 21813 21814 1 109.50000 418.400000
4556 21813 9672 1 109.50000 418.400000
4556 21813 21814 1 109.50000 418.400000
9672 21813 21814 1 109.50000 418.400000
21813 21814 21815 1 115.00000 209.200000
7126 21816 7862 1 109.50000 418.400000
7126 21816 9673 1 109.50000 418.400000
7126 21816 21817 1 109.50000 418.400000
7862 21816 9673 1 109.50000 418.400000
7862 21816 21817 1 109.50000 418.400000
9673 21816 21817 1 109.50000 418.400000
21816 21817 21818 1 115.00000 209.200000
6533 21819 9458 1 109.50000 418.400000
6533 21819 9683 1 109.50000 418.400000
6533 21819 21820 1 109.50000 418.400000
9458 21819 9683 1 109.50000 418.400000
9458 21819 21820 1 109.50000 418.400000
9683 21819 21820 1 109.50000 418.400000
21819 21820 21821 1 115.00000 209.200000
314 21822 6889 1 109.50000 418.400000
314 21822 9690 1 109.50000 418.400000
314 21822 21823 1 109.50000 418.400000
6889 21822 9690 1 109.50000 418.400000
6889 21822 21823 1 109.50000 418.400000
9690 21822 21823 1 109.50000 418.400000
21822 21823 21824 1 115.00000 209.200000
1237 21825 4076 1 109.50000 418.400000
1237 21825 5414 1 109.50000 418.400000
1237 21825 21826 1 109.50000 418.400000
4076 21825 5414 1 109.50000 418.400000
4076 21825 21826 1 109.50000 418.400000
5414 21825 21826 1 109.50000 418.400000
21825 21826 21827 1 115.00000 209.200000
5427 21828 8058 1 109.50000 418.400000
5427 21828 9727 1 109.50000 418.400000
5427 21828 21829 1 109.50000 418.400000
8058 21828 9727 1 109.50000 418.400000
8058 21828 21829 1 109.50000 418.400000
9727 21828 21829 1 109.50000 418.400000
21828 21829 21830 1 115.00000 209.200000
783 21831 3119 1 109.50000 418.400000
783 21831 6172 1 109.50000 418.400000
783 21831 21832 1 109.50000 418.400000
3119 21831 6172 1 109.50000 418.400000
3119 21831 21832 1 109.50000 418.400000
6172 21831 21832 1 109.50000 418.400000
21831 21832 21833 1 115.00000 209.200000
2469 21834 6734 1 109.50000 418.400000
2469 21834 9557 1 109.50000 418.400000
2469 21834 21835 1 109.50000 418.400000
6734 21834 9557 1 109.50000 418.400000
6734 21834 21835 1 109.50000 418.400000
9557 21834 21835 1 109.50000 418.400000
21834 21835 21836 1 115.00000 209.200000
1756 21837 4773 1 109.50000 418.400000
1756 21837 6307 1 109.50000 418.400000
1756 21837 21838 1 109.50000 418.400000
4773 21837 6307 1 109.50000 418.400000
4773 21837 21838 1 109.50000 418.400000
6307 21837 21838 1 109.50000 418.400000
21837 21838 21839 1 115.00000 209.200000
7742 21840 9665 1 109.50000 418.400000
7742 21840 9806 1 109.50000 418.400000
7742 21840 21841 1 109.50000 418.400000
9665 21840 9806 1 109.50000 418.400000
9665 21840 21841 1 109.50000 418.400000
9806 21840 21841 1 109.50000 418.400000
21840 21841 21842 1 115.00000 209.200000
3601 21843 6014 1 109.50000 418.400000
3601 21843 9808 1 109.50000 418.400000
3601 21843 21844 1 109.50000 418.400000
6014 21843 9808 1 109.50000 418.400000
6014 21843 21844 1 109.50000 418.400000
9808 21843 21844 1 109.50000 418.400000
21843 21844 21845 1 115.00000 209.200000
1926 21846 1927 1 109.50000 418.400000
1926 21846 9824 1 109.50000 418.400000
1926 21846 21847 1 109.50000 418.400000
1927 21846 9824 1 109.50000 418.400000
1927 21846 21847 1 109.50000 418.400000
9824 21846 21847 1 109.50000 418.400000
21846 21847 21848 1 115.00000 209.200000
481 21849 482 1 109.50000 418.400000
481 21849 5325 1 109.50000 418.400000
481 21849 21850 1 109.50000 418.400000
482 21849 5325 1 109.50000 418.400000
482 21849 21850 1 109.50000 418.400000
5325 21849 21850 1 109.50000 418.400000
21849 21850 21851 1 115.00000 209.200000
4776 21852 9852 1 109.50000 418.400000
4776 21852 9853 1 109.50000 418.400000
4776 21852 21853 1 109.50000 418.400000
9852 21852 9853 1 109.50000 418.400000
9852 21852 21853 1 109.50000 418.400000
9853 21852 21853 1 109.50000 418.400000
21852 21853 21854 1 115.00000 209.200000
6314 21855 6615 1 109.50000 418.400000
6314 21855 8111 1 109.50000 418.400000
6314 21855 21856 1 109.50000 418.400000
6615 21855 8111 1 109.50000 418.400000
6615 21855 21856 1 109.50000 418.400000
8111 21855 21856 1 109.50000 418.400000
21855 21856 21857 1 115.00000 209.200000
3677 21858 6601 1 109.50000 418.400000
3677 21858 6868 1 109.50000 418.400000
3677 21858 21859 1 109.50000 418.400000
6601 21858 6868 1 109.50000 418.400000
6601 21858 21859 1 109.50000 418.400000
6868 21858 21859 1 109.50000 418.400000
21858 21859 21860 1 115.00000 209.200000
371 21861 8875 1 109.50000 418.400000
371 21861 9091 1 109.50000 418.400000
371 21861 21862 1 109.50000 418.400000
8875 21861 9091 1 109.50000 418.400000
8875 21861 21862 1 109.50000 418.400000
9091 21861 21862 1 109.50000 418.400000
21861 21862 21863 1 115.00000 209.200000
9903 21864 9904 1 109.50000 418.400000
9903 21864 9905 1 109.50000 418.400000
9903 21864 21865 1 109.50000 418.400000
9904 21864 9905 1 109.50000 418.400000
9904 21864 21865 1 109.50000 418.400000
9905 21864 21865 1 109.50000 418.400000
21864 21865 21866 1 115.00000 209.200000
2499 21867 4539 1 109.50000 418.400000
2499 21867 8362 1 109.50000 418.400000
2499 21867 21868 1 109.50000 418.400000
4539 21867 8362 1 109.50000 418.400000
4539 21867 21868 1 109.50000 418.400000
8362 21867 21868 1 109.50000 418.400000
21867 21868 21869 1 115.00000 209.200000
6519 21870 7624 1 109.50000 418.400000
6519 21870 9930 1 109.50000 418.400000
6519 21870 21871 1 109.50000 418.400000
7624 21870 9930 1 109.50000 418.400000
7624 21870 21871 1 109.50000 418.400000
9930 21870 21871 1 109.50000 418.400000
21870 21871 21872 1 115.00000 209.200000
3285 21873 5981 1 109.50000 418.400000
3285 21873 9933 1 109.50000 418.400000
3285 21873 21874 1 109.50000 418.400000
5981 21873 9933 1 109.50000 418.400000
5981 21873 21874 1 109.50000 418.400000
9933 21873 21874 1 109.50000 418.400000
21873 21874 21875 1 115.00000 209.200000
2253 21876 9949 1 109.50000 418.400000
2253 21876 9950 1 109.50000 418.400000
2253 21876 21877 1 109.50000 418.400000
9949 21876 9950 1 109.50000 418.400000
9949 21876 21877 1 109.50000 418.400000
9950 21876 21877 1 109.50000 418.400000
21876 21877 21878 1 115.00000 209.200000
7834 21879 9965 1 109.50000 418.400000
7834 21879 9966 1 109.50000 418.400000
7834 21879 21880 1 109.50000 418.400000
9965 21879 9966 1 109.50000 418.400000
9965 21879 21880 1 109.50000 418.400000
9966 21879 21880 1 109.50000 418.400000
21879 21880 21881 1 115.00000 209.200000
4688 21882 5979 1 109.50000 418.400000
4688 21882 9965 1 109.50000 418.400000
4688 21882 21883 1 109.50000 418.400000
5979 21882 9965 1 109.50000 418.400000
5979 21882 21883 1 109.50000 418.400000
9965 21882 21883 1 109.50000 418.400000
21882 21883 21884 1 115.00000 209.200000
9405 21885 9993 1 109.50000 418.400000
9405 21885 9995 1 109.50000 418.400000
9405 21885 21886 1 109.50000 418.400000
9993 21885 9995 1 109.50000 418.400000
9993 21885 21886 1 109.50000 418.400000
9995 21885 21886 1 109.50000 418.400000
21885 21886 21887 1 115.00000 209.200000
1330 21888 7807 1 109.50000 418.400000
1330 21888 10012 1 109.50000 418.400000
1330 21888 21889 1 109.50000 418.400000
7807 21888 10012 1 109.50000 418.400000
7807 21888 21889 1 109.50000 418.400000
10012 21888 21889 1 109.50000 418.400000
21888 21889 21890 1 115.00000 209.200000
2019 21891 6569 1 109.50000 418.400000
2019 21891 10021 1 109.50000 418.400000
2019 21891 21892 1 109.50000 418.400000
6569 21891 10021 1 109.50000 418.400000
6569 21891 21892 1 109.50000 418.400000
10021 21891 21892 1 109.50000 418.400000
21891 21892 21893 1 115.00000 209.200000
10034 21894 10035 1 109.50000 418.400000
10034 21894 10036 1 109.50000 418.400000
10034 21894 21895 1 109.50000 418.400000
10035 21894 10036 1 109.50000 418.400000
10035 21894 21895 1 109.50000 418.400000
10036 21894 21895 1 109.50000 418.400000
21894 21895 21896 1 115.00000 209.200000
2112 21897 10068 1 109.50000 418.400000
2112 21897 10069 1 109.50000 418.400000
2112 21897 21898 1 109.50000 418.400000
10068 21897 10069 1 109.50000 418.400000
10068 21897 21898 1 109.50000 418.400000
10069 21897 21898 1 109.50000 418.400000
21897 21898 21899 1 115.00000 209.200000
6572 21900 6574 1 109.50000 418.400000
6572 21900 10081 1 109.50000 418.400000
6572 21900 21901 1 109.50000 418.400000
6574 21900 10081 1 109.50000 418.400000
6574 21900 21901 1 109.50000 418.400000
10081 21900 21901 1 109.50000 418.400000
21900 21901 21902 1 115.00000 209.200000
9284 21903 10085 1 109.50000 418.400000
9284 21903 10086 1 109.50000 418.400000
9284 21903 21904 1 109.50000 418.400000
10085 21903 10086 1 109.50000 418.400000
10085 21903 21904 1 109.50000 418.400000
10086 21903 21904 1 109.50000 418.400000
21903 21904 21905 1 115.00000 209.200000
3345 21906 4952 1 109.50000 418.400000
3345 21906 10104 1 109.50000 418.400000
3345 21906 21907 1 109.50000 418.400000
4952 21906 10104 1 109.50000 418.400000
4952 21906 21907 1 109.50000 418.400000
10104 21906 21907 1 109.50000 418.400000
21906 21907 21908 1 115.00000 209.200000
8928 21909 9424 1 109.50000 418.400000
8928 21909 9823 1 109.50000 418.400000
8928 21909 21910 1 109.50000 418.400000
9424 21909 9823 1 109.50000 418.400000
9424 21909 21910 1 109.50000 418.400000
9823 21909 21910 1 109.50000 418.400000
21909 21910 21911 1 115.00000 209.200000
2700 21912 4994 1 109.50000 418.400000
2700 21912 10121 1 109.50000 418.400000
2700 21912 21913 1 109.50000 418.400000
4994 21912 10121 1 109.50000 418.400000
4994 21912 21913 1 109.50000 418.400000
10121 21912 21913 1 109.50000 418.400000
21912 21913 21914 1 115.00000 209.200000
5020 21915 7250 1 109.50000 418.400000
5020 21915 10124 1 109.50000 418.400000
5020 21915 21916 1 109.50000 418.400000
7250 21915 10124 1 109.50000 418.400000
7250 21915 21916 1 109.50000 418.400000
10124 21915 21916 1 109.50000 418.400000
21915 21916 21917 1 115.00000 209.200000
2890 21918 9603 1 109.50000 418.400000
2890 21918 10140 1 109.50000 418.400000
2890 21918 21919 1 109.50000 418.400000
9603 21918 10140 1 109.50000 418.400000
9603 21918 21919 1 109.50000 418.400000
10140 21918 21919 1 109.50000 418.400000
21918 21919 21920 1 115.00000 209.200000
3834 21921 9092 1 109.50000 418.400000
3834 21921 10141 1 109.50000 418.400000
3834 21921 21922 1 109.50000 418.400000
9092 21921 10141 1 109.50000 418.400000
9092 21921 21922 1 109.50000 418.400000
10141 21921 21922 1 109.50000 418.400000
21921 21922 21923 1 115.00000 209.200000
9460 21924 10148 1 109.50000 418.400000
9460 21924 10149 1 109.50000 418.400000
9460 21924 21925 1 109.50000 418.400000
10148 21924 10149 1 109.50000 418.400000
10148 21924 21925 1 109.50000 418.400000
10149 21924 21925 1 109.50000 418.400000
21924 21925 21926 1 115.00000 209.200000
2099 21927 10012 1 109.50000 418.400000
2099 21927 10165 1 109.50000 418.400000
2099 21927 21928 1 109.50000 418.400000
10012 21927 10165 1 109.50000 418.400000
10012 21927 21928 1 109.50000 418.400000
10165 21927 21928 1 109.50000 418.400000
21927 21928 21929 1 115.00000 209.200000
2747 21930 9143 1 109.50000 418.400000
2747 21930 10185 1 109.50000 418.400000
2747 21930 21931 1 109.50000 418.400000
9143 21930 10185 1 109.50000 418.400000
9143 21930 21931 1 109.50000 418.400000
10185 21930 21931 1 109.50000 418.400000
21930 21931 21932 1 115.00000 209.200000
9269 21933 9492 1 109.50000 418.400000
9269 21933 10199 1 109.50000 418.400000
9269 21933 21934 1 109.50000 418.400000
9492 21933 10199 1 109.50000 418.400000
9492 21933 21934 1 109.50000 418.400000
10199 21933 21934 1 109.50000 418.400000
21933 21934 21935 1 115.00000 209.200000
7661 21936 7663 1 109.50000 418.400000
7661 21936 10213 1 109.50000 418.400000
7661 21936 21937 1 109.50000 418.400000
7663 21936 10213 1 109.50000 418.400000
7663 21936 21937 1 109.50000 418.400000
10213 21936 21937 1 109.50000 418.400000
21936 21937 21938 1 115.00000 209.200000
6238 21939 10197 1 109.50000 418.400000
6238 21939 10229 1 109.50000 418.400000
6238 21939 21940 1 109.50000 418.400000
10197 21939 10229 1 109.50000 418.400000
10197 21939 21940 1 109.50000 418.400000
10229 21939 21940 1 109.50000 418.400000
21939 21940 21941 1 115.00000 209.200000
2667 21942 7851 1 109.50000 418.400000
2667 21942 10230 1 109.50000 418.400000
2667 21942 21943 1 109.50000 418.400000
7851 21942 10230 1 109.50000 418.400000
7851 21942 21943 1 109.50000 418.400000
10230 21942 21943 1 109.50000 418.400000
21942 21943 21944 1 115.00000 209.200000
8985 21945 10238 1 109.50000 418.400000
8985 21945 10239 1 109.50000 418.400000
8985 21945 21946 1 109.50000 418.400000
10238 21945 10239 1 109.50000 418.400000
10238 21945 21946 1 109.50000 418.400000
10239 21945 21946 1 109.50000 418.400000
21945 21946 21947 1 115.00000 209.200000
2031 21948 3568 1 109.50000 418.400000
2031 21948 4118 1 109.50000 418.400000
2031 21948 21949 1 109.50000 418.400000
3568 21948 4118 1 109.50000 418.400000
3568 21948 21949 1 109.50000 418.400000
4118 21948 21949 1 109.50000 418.400000
21948 21949 21950 1 115.00000 209.200000
3527 21951 5392 1 109.50000 418.400000
3527 21951 6928 1 109.50000 418.400000
3527 21951 21952 1 109.50000 418.400000
5392 21951 6928 1 109.50000 418.400000
5392 21951 21952 1 109.50000 418.400000
6928 21951 21952 1 109.50000 418.400000
21951 21952 21953 1 115.00000 209.200000
7365 21954 10048 1 109.50000 418.400000
7365 21954 10296 1 109.50000 418.400000
7365 21954 21955 1 109.50000 418.400000
10048 21954 10296 1 109.50000 418.400000
10048 21954 21955 1 109.50000 418.400000
10296 21954 21955 1 109.50000 418.400000
21954 21955 21956 1 115.00000 209.200000
1634 21957 6000 1 109.50000 418.400000
1634 21957 9904 1 109.50000 418.400000
1634 21957 21958 1 109.50000 418.400000
6000 21957 9904 1 109.50000 418.400000
6000 21957 21958 1 109.50000 418.400000
9904 21957 21958 1 109.50000 418.400000
21957 21958 21959 1 115.00000 209.200000
4623 21960 5297 1 109.50000 418.400000
4623 21960 8375 1 109.50000 418.400000
4623 21960 21961 1 109.50000 418.400000
5297 21960 8375 1 109.50000 418.400000
5297 21960 21961 1 109.50000 418.400000
8375 21960 21961 1 109.50000 418.400000
21960 21961 21962 1 115.00000 209.200000
18 21963 8294 1 109.50000 418.400000
18 21963 9011 1 109.50000 418.400000
18 21963 21964 1 109.50000 418.400000
8294 21963 9011 1 109.50000 418.400000
8294 21963 21964 1 109.50000 418.400000
9011 21963 21964 1 109.50000 418.400000
21963 21964 21965 1 115.00000 209.200000
3927 21966 4809 1 109.50000 418.400000
3927 21966 5287 1 109.50000 418.400000
3927 21966 21967 1 109.50000 418.400000
4809 21966 5287 1 109.50000 418.400000
4809 21966 21967 1 109.50000 418.400000
5287 21966 21967 1 109.50000 418.400000
21966 21967 21968 1 115.00000 209.200000
3492 21969 3935 1 109.50000 418.400000
3492 21969 9678 1 109.50000 418.400000
3492 21969 21970 1 109.50000 418.400000
3935 21969 9678 1 109.50000 418.400000
3935 21969 21970 1 109.50000 418.400000
9678 21969 21970 1 109.50000 418.400000
21969 21970 21971 1 115.00000 209.200000
3559 21972 10104 1 109.50000 418.400000
3559 21972 10270 1 109.50000 418.400000
3559 21972 21973 1 109.50000 418.400000
10104 21972 10270 1 109.50000 418.400000
10104 21972 21973 1 109.50000 418.400000
10270 21972 21973 1 109.50000 418.400000
21972 21973 21974 1 115.00000 209.200000
1075 21975 4446 1 109.50000 418.400000
1075 21975 10221 1 109.50000 418.400000
1075 21975 21976 1 109.50000 418.400000
4446 21975 10221 1 109.50000 418.400000
4446 21975 21976 1 109.50000 418.400000
10221 21975 21976 1 109.50000 418.400000
21975 21976 21977 1 115.00000 209.200000
10435 21978 10436 1 109.50000 418.400000
10435 21978 10836 1 109.50000 418.400000
10435 21978 21979 1 109.50000 418.400000
10436 21978 10836 1 109.50000 418.400000
10436 21978 21979 1 109.50000 418.400000
10836 21978 21979 1 109.50000 418.400000
21978 21979 21980 1 115.00000 209.200000
4057 21981 10441 1 109.50000 418.400000
4057 21981 10442 1 109.50000 418.400000
4057 21981 21982 1 109.50000 418.400000
10441 21981 10442 1 109.50000 418.400000
10441 21981 21982 1 109.50000 418.400000
10442 21981 21982 1 109.50000 418.400000
21981 21982 21983 1 115.00000 209.200000
9562 21984 10461 1 109.50000 418.400000
9562 21984 10462 1 109.50000 418.400000
9562 21984 21985 1 109.50000 418.400000
10461 21984 10462 1 109.50000 418.400000
10461 21984 21985 1 109.50000 418.400000
10462 21984 21985 1 109.50000 418.400000
21984 21985 21986 1 115.00000 209.200000
793 21987 10034 1 109.50000 418.400000
793 21987 10463 1 109.50000 418.400000
793 21987 21988 1 109.50000 418.400000
10034 21987 10463 1 109.50000 418.400000
10034 21987 21988 1 109.50000 418.400000
10463 21987 21988 1 109.50000 418.400000
21987 21988 21989 1 115.00000 209.200000
9803 21990 10149 1 109.50000 418.400000
9803 21990 10492 1 109.50000 418.400000
9803 21990 21991 1 109.50000 418.400000
10149 21990 10492 1 109.50000 418.400000
10149 21990 21991 1 109.50000 418.400000
10492 21990 21991 1 109.50000 418.400000
21990 21991 21992 1 115.00000 209.200000
1755 21993 10306 1 109.50000 418.400000
1755 21993 10307 1 109.50000 418.400000
1755 21993 21994 1 109.50000 418.400000
10306 21993 10307 1 109.50000 418.400000
10306 21993 21994 1 109.50000 418.400000
10307 21993 21994 1 109.50000 418.400000
21993 21994 21995 1 115.00000 209.200000
1021 21996 9602 1 109.50000 418.400000
1021 21996 9828 1 109.50000 418.400000
1021 21996 21997 1 109.50000 418.400000
9602 21996 9828 1 109.50000 418.400000
9602 21996 21997 1 109.50000 418.400000
9828 21996 21997 1 109.50000 418.400000
21996 21997 21998 1 115.00000 209.200000
1715 21999 7141 1 109.50000 418.400000
1715 21999 8493 1 109.50000 418.400000
1715 21999 22000 1 109.50000 418.400000
7141 21999 8493 1 109.50000 418.400000
7141 21999 22000 1 109.50000 418.400000
8493 21999 22000 1 109.50000 418.400000
21999 22000 22001 1 115.00000 209.200000
19 22002 4534 1 109.50000 418.400000
19 22002 9768 1 109.50000 418.400000
19 22002 22003 1 109.50000 418.400000
4534 22002 9768 1 109.50000 418.400000
4534 22002 22003 1 109.50000 418.400000
9768 22002 22003 1 109.50000 418.400000
22002 22003 22004 1 115.00000 209.200000
1635 22005 10513 1 109.50000 418.400000
1635 22005 10514 1 109.50000 418.400000
1635 22005 22006 1 109.50000 418.400000
10513 22005 10514 1 109.50000 418.400000
10513 22005 22006 1 109.50000 418.400000
10514 22005 22006 1 109.50000 418.400000
22005 22006 22007 1 115.00000 209.200000
5592 22008 9575 1 109.50000 418.400000
5592 22008 9642 1 109.50000 418.400000
5592 22008 22009 1 109.50000 418.400000
9575 22008 9642 1 109.50000 418.400000
9575 22008 22009 1 109.50000 418.400000
9642 22008 22009 1 109.50000 418.400000
22008 22009 22010 1 115.00000 209.200000
3105 22011 10560 1 109.50000 418.400000
3105 22011 10561 1 109.50000 418.400000
3105 22011 22012 1 109.50000 418.400000
10560 22011 10561 1 109.50000 418.400000
10560 22011 22012 1 109.50000 418.400000
10561 22011 22012 1 109.50000 418.400000
22011 22012 22013 1 115.00000 209.200000
2996 22014 4584 1 109.50000 418.400000
2996 22014 10567 1 109.50000 418.400000
2996 22014 22015 1 109.50000 418.400000
4584 22014 10567 1 109.50000 418.400000
4584 22014 22015 1 109.50000 418.400000
10567 22014 22015 1 109.50000 418.400000
22014 22015 22016 1 115.00000 209.200000
1970 22017 3493 1 109.50000 418.400000
1970 22017 6263 1 109.50000 418.400000
1970 22017 22018 1 109.50000 418.400000
3493 22017 6263 1 109.50000 418.400000
3493 22017 22018 1 109.50000 418.400000
6263 22017 22018 1 109.50000 418.400000
22017 22018 22019 1 115.00000 209.200000
3740 22020 6089 1 109.50000 418.400000
3740 22020 10572 1 109.50000 418.400000
3740 22020 22021 1 109.50000 418.400000
6089 22020 10572 1 109.50000 418.400000
6089 22020 22021 1 109.50000 418.400000
10572 22020 22021 1 109.50000 418.400000
22020 22021 22022 1 115.00000 209.200000
5467 22023 10581 1 109.50000 418.400000
5467 22023 10582 1 109.50000 418.400000
5467 22023 22024 1 109.50000 418.400000
10581 22023 10582 1 109.50000 418.400000
10581 22023 22024 1 109.50000 418.400000
10582 22023 22024 1 109.50000 418.400000
22023 22024 22025 1 115.00000 209.200000
2568 22026 4033 1 109.50000 418.400000
2568 22026 7493 1 109.50000 418.400000
2568 22026 22027 1 109.50000 418.400000
4033 22026 7493 1 109.50000 418.400000
4033 22026 22027 1 109.50000 418.400000
7493 22026 22027 1 109.50000 418.400000
22026 22027 22028 1 115.00000 209.200000
620 22029 10592 1 109.50000 418.400000
620 22029 10593 1 109.50000 418.400000
620 22029 22030 1 109.50000 418.400000
10592 22029 10593 1 109.50000 418.400000
10592 22029 22030 1 109.50000 418.400000
10593 22029 22030 1 109.50000 418.400000
22029 22030 22031 1 115.00000 209.200000
1971 22032 5428 1 109.50000 418.400000
1971 22032 10312 1 109.50000 418.400000
1971 22032 22033 1 109.50000 418.400000
5428 22032 10312 1 109.50000 418.400000
5428 22032 22033 1 109.50000 418.400000
10312 22032 22033 1 109.50000 418.400000
22032 22033 22034 1 115.00000 209.200000
3946 22035 4479 1 109.50000 418.400000
3946 22035 10607 1 109.50000 418.400000
3946 22035 22036 1 109.50000 418.400000
4479 22035 10607 1 109.50000 418.400000
4479 22035 22036 1 109.50000 418.400000
10607 22035 22036 1 109.50000 418.400000
22035 22036 22037 1 115.00000 209.200000
3727 22038 9679 1 109.50000 418.400000
3727 22038 9751 1 109.50000 418.400000
3727 22038 22039 1 109.50000 418.400000
9679 22038 9751 1 109.50000 418.400000
9679 22038 22039 1 109.50000 418.400000
9751 22038 22039 1 109.50000 418.400000
22038 22039 22040 1 115.00000 209.200000
90 22041 3380 1 109.50000 418.400000
90 22041 5856 1 109.50000 418.400000
90 22041 22042 1 109.50000 418.400000
3380 22041 5856 1 109.50000 418.400000
3380 22041 22042 1 109.50000 418.400000
5856 22041 22042 1 109.50000 418.400000
22041 22042 22043 1 115.00000 209.200000
6267 22044 6988 1 109.50000 418.400000
6267 22044 10626 1 109.50000 418.400000
6267 22044 22045 1 109.50000 418.400000
6988 22044 10626 1 109.50000 418.400000
6988 22044 22045 1 109.50000 418.400000
10626 22044 22045 1 109.50000 418.400000
22044 22045 22046 1 115.00000 209.200000
3071 22047 7376 1 109.50000 418.400000
3071 22047 9183 1 109.50000 418.400000
3071 22047 22048 1 109.50000 418.400000
7376 22047 9183 1 109.50000 418.400000
7376 22047 22048 1 109.50000 418.400000
9183 22047 22048 1 109.50000 418.400000
22047 22048 22049 1 115.00000 209.200000
4439 22050 6909 1 109.50000 418.400000
4439 22050 9574 1 109.50000 418.400000
4439 22050 22051 1 109.50000 418.400000
6909 22050 9574 1 109.50000 418.400000
6909 22050 22051 1 109.50000 418.400000
9574 22050 22051 1 109.50000 418.400000
22050 22051 22052 1 115.00000 209.200000
6149 22053 10678 1 109.50000 418.400000
6149 22053 10679 1 109.50000 418.400000
6149 22053 22054 1 109.50000 418.400000
10678 22053 10679 1 109.50000 418.400000
10678 22053 22054 1 109.50000 418.400000
10679 22053 22054 1 109.50000 418.400000
22053 22054 22055 1 115.00000 209.200000
4018 22056 4082 1 109.50000 418.400000
4018 22056 10560 1 109.50000 418.400000
4018 22056 22057 1 109.50000 418.400000
4082 22056 10560 1 109.50000 418.400000
4082 22056 22057 1 109.50000 418.400000
10560 22056 22057 1 109.50000 418.400000
22056 22057 22058 1 115.00000 209.200000
3878 22059 8874 1 109.50000 418.400000
3878 22059 9441 1 109.50000 418.400000
3878 22059 22060 1 109.50000 418.400000
8874 22059 9441 1 109.50000 418.400000
8874 22059 22060 1 109.50000 418.400000
9441 22059 22060 1 109.50000 418.400000
22059 22060 22061 1 115.00000 209.200000
9732 22062 10685 1 109.50000 418.400000
9732 22062 10686 1 109.50000 418.400000
9732 22062 22063 1 109.50000 418.400000
10685 22062 10686 1 109.50000 418.400000
10685 22062 22063 1 109.50000 418.400000
10686 22062 22063 1 109.50000 418.400000
22062 22063 22064 1 115.00000 209.200000
4367 22065 6396 1 109.50000 418.400000
4367 22065 10705 1 109.50000 418.400000
4367 22065 22066 1 109.50000 418.400000
6396 22065 10705 1 109.50000 418.400000
6396 22065 22066 1 109.50000 418.400000
10705 22065 22066 1 109.50000 418.400000
22065 22066 22067 1 115.00000 209.200000
6843 22068 8621 1 109.50000 418.400000
6843 22068 9766 1 109.50000 418.400000
6843 22068 22069 1 109.50000 418.400000
8621 22068 9766 1 109.50000 418.400000
8621 22068 22069 1 109.50000 418.400000
9766 22068 22069 1 109.50000 418.400000
22068 22069 22070 1 115.00000 209.200000
5763 22071 8044 1 109.50000 418.400000
5763 22071 10736 1 109.50000 418.400000
5763 22071 22072 1 109.50000 418.400000
8044 22071 10736 1 109.50000 418.400000
8044 22071 22072 1 109.50000 418.400000
10736 22071 22072 1 109.50000 418.400000
22071 22072 22073 1 115.00000 209.200000
9210 22074 10742 1 109.50000 418.400000
9210 22074 10743 1 109.50000 418.400000
9210 22074 22075 1 109.50000 418.400000
10742 22074 10743 1 109.50000 418.400000
10742 22074 22075 1 109.50000 418.400000
10743 22074 22075 1 109.50000 418.400000
22074 22075 22076 1 115.00000 209.200000
6452 22077 9581 1 109.50000 418.400000
6452 22077 10744 1 109.50000 418.400000
6452 22077 22078 1 109.50000 418.400000
9581 22077 10744 1 109.50000 418.400000
9581 22077 22078 1 109.50000 418.400000
10744 22077 22078 1 109.50000 418.400000
22077 22078 22079 1 115.00000 209.200000
6152 22080 8498 1 109.50000 418.400000
6152 22080 10747 1 109.50000 418.400000
6152 22080 22081 1 109.50000 418.400000
8498 22080 10747 1 109.50000 418.400000
8498 22080 22081 1 109.50000 418.400000
10747 22080 22081 1 109.50000 418.400000
22080 22081 22082 1 115.00000 209.200000
792 22083 5442 1 109.50000 418.400000
792 22083 9504 1 109.50000 418.400000
792 22083 22084 1 109.50000 418.400000
5442 22083 9504 1 109.50000 418.400000
5442 22083 22084 1 109.50000 418.400000
9504 22083 22084 1 109.50000 418.400000
22083 22084 22085 1 115.00000 209.200000
6901 22086 10756 1 109.50000 418.400000
6901 22086 10757 1 109.50000 418.400000
6901 22086 22087 1 109.50000 418.400000
10756 22086 10757 1 109.50000 418.400000
10756 22086 22087 1 109.50000 418.400000
10757 22086 22087 1 109.50000 418.400000
22086 22087 22088 1 115.00000 209.200000
4510 22089 7457 1 109.50000 418.400000
4510 22089 10758 1 109.50000 418.400000
4510 22089 22090 1 109.50000 418.400000
7457 22089 10758 1 109.50000 418.400000
7457 22089 22090 1 109.50000 418.400000
10758 22089 22090 1 109.50000 418.400000
22089 22090 22091 1 115.00000 209.200000
1877 22092 3338 1 109.50000 418.400000
1877 22092 7979 1 109.50000 418.400000
1877 22092 22093 1 109.50000 418.400000
3338 22092 7979 1 109.50000 418.400000
3338 22092 22093 1 109.50000 418.400000
7979 22092 22093 1 109.50000 418.400000
22092 22093 22094 1 115.00000 209.200000
6366 22095 8054 1 109.50000 418.400000
6366 22095 8213 1 109.50000 418.400000
6366 22095 22096 1 109.50000 418.400000
8054 22095 8213 1 109.50000 418.400000
8054 22095 22096 1 109.50000 418.400000
8213 22095 22096 1 109.50000 418.400000
22095 22096 22097 1 115.00000 209.200000
853 22098 1645 1 109.50000 418.400000
853 22098 4565 1 109.50000 418.400000
853 22098 22099 1 109.50000 418.400000
1645 22098 4565 1 109.50000 418.400000
1645 22098 22099 1 109.50000 418.400000
4565 22098 22099 1 109.50000 418.400000
22098 22099 22100 1 115.00000 209.200000
896 22101 4550 1 109.50000 418.400000
896 22101 7220 1 109.50000 418.400000
896 22101 22102 1 109.50000 418.400000
4550 22101 7220 1 109.50000 418.400000
4550 22101 22102 1 109.50000 418.400000
7220 22101 22102 1 109.50000 418.400000
22101 22102 22103 1 115.00000 209.200000
2884 22104 9804 1 109.50000 418.400000
2884 22104 10802 1 109.50000 418.400000
2884 22104 22105 1 109.50000 418.400000
9804 22104 10802 1 109.50000 418.400000
9804 22104 22105 1 109.50000 418.400000
10802 22104 22105 1 109.50000 418.400000
22104 22105 22106 1 115.00000 209.200000
417 22107 9344 1 109.50000 418.400000
417 22107 10804 1 109.50000 418.400000
417 22107 22108 1 109.50000 418.400000
9344 22107 10804 1 109.50000 418.400000
9344 22107 22108 1 109.50000 418.400000
10804 22107 22108 1 109.50000 418.400000
22107 22108 22109 1 115.00000 209.200000
1951 22110 8851 1 109.50000 418.400000
1951 22110 10674 1 109.50000 418.400000
1951 22110 22111 1 109.50000 418.400000
8851 22110 10674 1 109.50000 418.400000
8851 22110 22111 1 109.50000 418.400000
10674 22110 22111 1 109.50000 418.400000
22110 22111 22112 1 115.00000 209.200000
3567 22113 10441 1 109.50000 418.400000
3567 22113 10814 1 109.50000 418.400000
3567 22113 22114 1 109.50000 418.400000
10441 22113 10814 1 109.50000 418.400000
10441 22113 22114 1 109.50000 418.400000
10814 22113 22114 1 109.50000 418.400000
22113 22114 22115 1 115.00000 209.200000
9549 22116 10821 1 109.50000 418.400000
9549 22116 10822 1 109.50000 418.400000
9549 22116 22117 1 109.50000 418.400000
10821 22116 10822 1 109.50000 418.400000
10821 22116 22117 1 109.50000 418.400000
10822 22116 22117 1 109.50000 418.400000
22116 22117 22118 1 115.00000 209.200000
2042 22119 7343 1 109.50000 418.400000
2042 22119 10425 1 109.50000 418.400000
2042 22119 22120 1 109.50000 418.400000
7343 22119 10425 1 109.50000 418.400000
7343 22119 22120 1 109.50000 418.400000
10425 22119 22120 1 109.50000 418.400000
22119 22120 22121 1 115.00000 209.200000
2493 22122 10813 1 109.50000 418.400000
2493 22122 10827 1 109.50000 418.400000
2493 22122 22123 1 109.50000 418.400000
10813 22122 10827 1 109.50000 418.400000
10813 22122 22123 1 109.50000 418.400000
10827 22122 22123 1 109.50000 418.400000
22122 22123 22124 1 115.00000 209.200000
1222 22125 10802 1 109.50000 418.400000
1222 22125 10828 1 109.50000 418.400000
1222 22125 22126 1 109.50000 418.400000
10802 22125 10828 1 109.50000 418.400000
10802 22125 22126 1 109.50000 418.400000
10828 22125 22126 1 109.50000 418.400000
22125 22126 22127 1 115.00000 209.200000
7287 22128 7288 1 109.50000 418.400000
7287 22128 9990 1 109.50000 418.400000
7287 22128 22129 1 109.50000 418.400000
7288 22128 9990 1 109.50000 418.400000
7288 22128 22129 1 109.50000 418.400000
9990 22128 22129 1 109.50000 418.400000
22128 22129 22130 1 115.00000 209.200000
4929 22131 10286 1 109.50000 418.400000
4929 22131 10500 1 109.50000 418.400000
4929 22131 22132 1 109.50000 418.400000
10286 22131 10500 1 109.50000 418.400000
10286 22131 22132 1 109.50000 418.400000
10500 22131 22132 1 109.50000 418.400000
22131 22132 22133 1 115.00000 209.200000
6997 22134 8822 1 109.50000 418.400000
6997 22134 10551 1 109.50000 418.400000
6997 22134 22135 1 109.50000 418.400000
8822 22134 10551 1 109.50000 418.400000
8822 22134 22135 1 109.50000 418.400000
10551 22134 22135 1 109.50000 418.400000
22134 22135 22136 1 115.00000 209.200000
4848 22137 5735 1 109.50000 418.400000
4848 22137 7309 1 109.50000 418.400000
4848 22137 22138 1 109.50000 418.400000
5735 22137 7309 1 109.50000 418.400000
5735 22137 22138 1 109.50000 418.400000
7309 22137 22138 1 109.50000 418.400000
22137 22138 22139 1 115.00000 209.200000
2490 22140 7612 1 109.50000 418.400000
2490 22140 7613 1 109.50000 418.400000
2490 22140 22141 1 109.50000 418.400000
7612 22140 7613 1 109.50000 418.400000
7612 22140 22141 1 109.50000 418.400000
7613 22140 22141 1 109.50000 418.400000
22140 22141 22142 1 115.00000 209.200000
4497 22143 5673 1 109.50000 418.400000
4497 22143 10858 1 109.50000 418.400000
4497 22143 22144 1 109.50000 418.400000
5673 22143 10858 1 109.50000 418.400000
5673 22143 22144 1 109.50000 418.400000
10858 22143 22144 1 109.50000 418.400000
22143 22144 22145 1 115.00000 209.200000
1037 22146 7956 1 109.50000 418.400000
1037 22146 9734 1 109.50000 418.400000
1037 22146 22147 1 109.50000 418.400000
7956 22146 9734 1 109.50000 418.400000
7956 22146 22147 1 109.50000 418.400000
9734 22146 22147 1 109.50000 418.400000
22146 22147 22148 1 115.00000 209.200000
9276 22149 9992 1 109.50000 418.400000
9276 22149 10866 1 109.50000 418.400000
9276 22149 22150 1 109.50000 418.400000
9992 22149 10866 1 109.50000 418.400000
9992 22149 22150 1 109.50000 418.400000
10866 22149 22150 1 109.50000 418.400000
22149 22150 22151 1 115.00000 209.200000
8459 22152 10864 1 109.50000 418.400000
8459 22152 10867 1 109.50000 418.400000
8459 22152 22153 1 109.50000 418.400000
10864 22152 10867 1 109.50000 418.400000
10864 22152 22153 1 109.50000 418.400000
10867 22152 22153 1 109.50000 418.400000
22152 22153 22154 1 115.00000 209.200000
7843 22155 10080 1 109.50000 418.400000
7843 22155 10213 1 109.50000 418.400000
7843 22155 22156 1 109.50000 418.400000
10080 22155 10213 1 109.50000 418.400000
10080 22155 22156 1 109.50000 418.400000
10213 22155 22156 1 109.50000 418.400000
22155 22156 22157 1 115.00000 209.200000
6913 22158 7711 1 109.50000 418.400000
6913 22158 7861 1 109.50000 418.400000
6913 22158 22159 1 109.50000 418.400000
7711 22158 7861 1 109.50000 418.400000
7711 22158 22159 1 109.50000 418.400000
7861 22158 22159 1 109.50000 418.400000
22158 22159 22160 1 115.00000 209.200000
4209 22161 5092 1 109.50000 418.400000
4209 22161 9927 1 109.50000 418.400000
4209 22161 22162 1 109.50000 418.400000
5092 22161 9927 1 109.50000 418.400000
5092 22161 22162 1 109.50000 418.400000
9927 22161 22162 1 109.50000 418.400000
22161 22162 22163 1 115.00000 209.200000
7127 22164 9505 1 109.50000 418.400000
7127 22164 9506 1 109.50000 418.400000
7127 22164 22165 1 109.50000 418.400000
9505 22164 9506 1 109.50000 418.400000
9505 22164 22165 1 109.50000 418.400000
9506 22164 22165 1 109.50000 418.400000
22164 22165 22166 1 115.00000 209.200000
262 22167 9690 1 109.50000 418.400000
262 22167 10891 1 109.50000 418.400000
262 22167 22168 1 109.50000 418.400000
9690 22167 10891 1 109.50000 418.400000
9690 22167 22168 1 109.50000 418.400000
10891 22167 22168 1 109.50000 418.400000
22167 22168 22169 1 115.00000 209.200000
348 22170 349 1 109.50000 418.400000
348 22170 350 1 109.50000 418.400000
348 22170 22171 1 109.50000 418.400000
349 22170 350 1 109.50000 418.400000
349 22170 22171 1 109.50000 418.400000
350 22170 22171 1 109.50000 418.400000
22170 22171 22172 1 115.00000 209.200000
8275 22173 10439 1 109.50000 418.400000
8275 22173 10911 1 109.50000 418.400000
8275 22173 22174 1 109.50000 418.400000
10439 22173 10911 1 109.50000 418.400000
10439 22173 22174 1 109.50000 418.400000
10911 22173 22174 1 109.50000 418.400000
22173 22174 22175 1 115.00000 209.200000
4041 22176 8961 1 109.50000 418.400000
4041 22176 10146 1 109.50000 418.400000
4041 22176 22177 1 109.50000 418.400000
8961 22176 10146 1 109.50000 418.400000
8961 22176 22177 1 109.50000 418.400000
10146 22176 22177 1 109.50000 418.400000
22176 22177 22178 1 115.00000 209.200000
8799 22179 10705 1 109.50000 418.400000
8799 22179 10923 1 109.50000 418.400000
8799 22179 22180 1 109.50000 418.400000
10705 22179 10923 1 109.50000 418.400000
10705 22179 22180 1 109.50000 418.400000
10923 22179 22180 1 109.50000 418.400000
22179 22180 22181 1 115.00000 209.200000
6441 22182 8569 1 109.50000 418.400000
6441 22182 10759 1 109.50000 418.400000
6441 22182 22183 1 109.50000 418.400000
8569 22182 10759 1 109.50000 418.400000
8569 22182 22183 1 109.50000 418.400000
10759 22182 22183 1 109.50000 418.400000
22182 22183 22184 1 115.00000 209.200000
4031 22185 7264 1 109.50000 418.400000
4031 22185 10488 1 109.50000 418.400000
4031 22185 22186 1 109.50000 418.400000
7264 22185 10488 1 109.50000 418.400000
7264 22185 22186 1 109.50000 418.400000
10488 22185 22186 1 109.50000 418.400000
22185 22186 22187 1 115.00000 209.200000
5356 22188 9950 1 109.50000 418.400000
5356 22188 10911 1 109.50000 418.400000
5356 22188 22189 1 109.50000 418.400000
9950 22188 10911 1 109.50000 418.400000
9950 22188 22189 1 109.50000 418.400000
10911 22188 22189 1 109.50000 418.400000
22188 22189 22190 1 115.00000 209.200000
1727 22191 6638 1 109.50000 418.400000
1727 22191 7818 1 109.50000 418.400000
1727 22191 22192 1 109.50000 418.400000
6638 22191 7818 1 109.50000 418.400000
6638 22191 22192 1 109.50000 418.400000
7818 22191 22192 1 109.50000 418.400000
22191 22192 22193 1 115.00000 209.200000
272 22194 6225 1 109.50000 418.400000
272 22194 9827 1 109.50000 418.400000
272 22194 22195 1 109.50000 418.400000
6225 22194 9827 1 109.50000 418.400000
6225 22194 22195 1 109.50000 418.400000
9827 22194 22195 1 109.50000 418.400000
22194 22195 22196 1 115.00000 209.200000
8815 22197 10457 1 109.50000 418.400000
8815 22197 10942 1 109.50000 418.400000
8815 22197 22198 1 109.50000 418.400000
10457 22197 10942 1 109.50000 418.400000
10457 22197 22198 1 109.50000 418.400000
10942 22197 22198 1 109.50000 418.400000
22197 22198 22199 1 115.00000 209.200000
4437 22200 4853 1 109.50000 418.400000
4437 22200 7741 1 109.50000 418.400000
4437 22200 22201 1 109.50000 418.400000
4853 22200 7741 1 109.50000 418.400000
4853 22200 22201 1 109.50000 418.400000
7741 22200 22201 1 109.50000 418.400000
22200 22201 22202 1 115.00000 209.200000
10049 22203 10949 1 109.50000 418.400000
10049 22203 10950 1 109.50000 418.400000
10049 22203 22204 1 109.50000 418.400000
10949 22203 10950 1 109.50000 418.400000
10949 22203 22204 1 109.50000 418.400000
10950 22203 22204 1 109.50000 418.400000
22203 22204 22205 1 115.00000 209.200000
518 22206 9247 1 109.50000 418.400000
518 22206 9744 1 109.50000 418.400000
518 22206 22207 1 109.50000 418.400000
9247 22206 9744 1 109.50000 418.400000
9247 22206 22207 1 109.50000 418.400000
9744 22206 22207 1 109.50000 418.400000
22206 22207 22208 1 115.00000 209.200000
4955 22209 8067 1 109.50000 418.400000
4955 22209 10686 1 109.50000 418.400000
4955 22209 22210 1 109.50000 418.400000
8067 22209 10686 1 109.50000 418.400000
8067 22209 22210 1 109.50000 418.400000
10686 22209 22210 1 109.50000 418.400000
22209 22210 22211 1 115.00000 209.200000
1781 22212 6734 1 109.50000 418.400000
1781 22212 6735 1 109.50000 418.400000
1781 22212 22213 1 109.50000 418.400000
6734 22212 6735 1 109.50000 418.400000
6734 22212 22213 1 109.50000 418.400000
6735 22212 22213 1 109.50000 418.400000
22212 22213 22214 1 115.00000 209.200000
10678 22215 10964 1 109.50000 418.400000
10678 22215 10965 1 109.50000 418.400000
10678 22215 22216 1 109.50000 418.400000
10964 22215 10965 1 109.50000 418.400000
10964 22215 22216 1 109.50000 418.400000
10965 22215 22216 1 109.50000 418.400000
22215 22216 22217 1 115.00000 209.200000
7733 22218 7877 1 109.50000 418.400000
7733 22218 10940 1 109.50000 418.400000
7733 22218 22219 1 109.50000 418.400000
7877 22218 10940 1 109.50000 418.400000
7877 22218 22219 1 109.50000 418.400000
10940 22218 22219 1 109.50000 418.400000
22218 22219 22220 1 115.00000 209.200000
9191 22221 10671 1 109.50000 418.400000
9191 22221 10988 1 109.50000 418.400000
9191 22221 22222 1 109.50000 418.400000
10671 22221 10988 1 109.50000 418.400000
10671 22221 22222 1 109.50000 418.400000
10988 22221 22222 1 109.50000 418.400000
22221 22222 22223 1 115.00000 209.200000
4221 22224 5270 1 109.50000 418.400000
4221 22224 10866 1 109.50000 418.400000
4221 22224 22225 1 109.50000 418.400000
5270 22224 10866 1 109.50000 418.400000
5270 22224 22225 1 109.50000 418.400000
10866 22224 22225 1 109.50000 418.400000
22224 22225 22226 1 115.00000 209.200000
5671 22227 7291 1 109.50000 418.400000
5671 22227 10536 1 109.50000 418.400000
5671 22227 22228 1 109.50000 418.400000
7291 22227 10536 1 109.50000 418.400000
7291 22227 22228 1 109.50000 418.400000
10536 22227 22228 1 109.50000 418.400000
22227 22228 22229 1 115.00000 209.200000
1444 22230 9025 1 109.50000 418.400000
1444 22230 10995 1 109.50000 418.400000
1444 22230 22231 1 109.50000 418.400000
9025 22230 10995 1 109.50000 418.400000
9025 22230 22231 1 109.50000 418.400000
10995 22230 22231 1 109.50000 418.400000
22230 22231 22232 1 115.00000 209.200000
6144 22233 6987 1 109.50000 418.400000
6144 22233 8304 1 109.50000 418.400000
6144 22233 22234 1 109.50000 418.400000
6987 22233 8304 1 109.50000 418.400000
6987 22233 22234 1 109.50000 418.400000
8304 22233 22234 1 109.50000 418.400000
22233 22234 22235 1 115.00000 209.200000
708 22236 7806 1 109.50000 418.400000
708 22236 10841 1 109.50000 418.400000
708 22236 22237 1 109.50000 418.400000
7806 22236 10841 1 109.50000 418.400000
7806 22236 22237 1 109.50000 418.400000
10841 22236 22237 1 109.50000 418.400000
22236 22237 22238 1 115.00000 209.200000
3470 22239 10046 1 109.50000 418.400000
3470 22239 10995 1 109.50000 418.400000
3470 22239 22240 1 109.50000 418.400000
10046 22239 10995 1 109.50000 418.400000
10046 22239 22240 1 109.50000 418.400000
10995 22239 22240 1 109.50000 418.400000
22239 22240 22241 1 115.00000 209.200000
1623 22242 9645 1 109.50000 418.400000
1623 22242 11032 1 109.50000 418.400000
1623 22242 22243 1 109.50000 418.400000
9645 22242 11032 1 109.50000 418.400000
9645 22242 22243 1 109.50000 418.400000
11032 22242 22243 1 109.50000 418.400000
22242 22243 22244 1 115.00000 209.200000
4735 22245 9701 1 109.50000 418.400000
4735 22245 10916 1 109.50000 418.400000
4735 22245 22246 1 109.50000 418.400000
9701 22245 10916 1 109.50000 418.400000
9701 22245 22246 1 109.50000 418.400000
10916 22245 22246 1 109.50000 418.400000
22245 22246 22247 1 115.00000 209.200000
1644 22248 6386 1 109.50000 418.400000
1644 22248 10906 1 109.50000 418.400000
1644 22248 22249 1 109.50000 418.400000
6386 22248 10906 1 109.50000 418.400000
6386 22248 22249 1 109.50000 418.400000
10906 22248 22249 1 109.50000 418.400000
22248 22249 22250 1 115.00000 209.200000
9668 22251 10569 1 109.50000 418.400000
9668 22251 10902 1 109.50000 418.400000
9668 22251 22252 1 109.50000 418.400000
10569 22251 10902 1 109.50000 418.400000
10569 22251 22252 1 109.50000 418.400000
10902 22251 22252 1 109.50000 418.400000
22251 22252 22253 1 115.00000 209.200000
721 22254 4292 1 109.50000 418.400000
721 22254 11075 1 109.50000 418.400000
721 22254 22255 1 109.50000 418.400000
4292 22254 11075 1 109.50000 418.400000
4292 22254 22255 1 109.50000 418.400000
11075 22254 22255 1 109.50000 418.400000
22254 22255 22256 1 115.00000 209.200000
2500 22257 2921 1 109.50000 418.400000
2500 22257 7708 1 109.50000 418.400000
2500 22257 22258 1 109.50000 418.400000
2921 22257 7708 1 109.50000 418.400000
2921 22257 22258 1 109.50000 418.400000
7708 22257 22258 1 109.50000 418.400000
22257 22258 22259 1 115.00000 209.200000
1260 22260 4517 1 109.50000 418.400000
1260 22260 9202 1 109.50000 418.400000
1260 22260 22261 1 109.50000 418.400000
4517 22260 9202 1 109.50000 418.400000
4517 22260 22261 1 109.50000 418.400000
9202 22260 22261 1 109.50000 418.400000
22260 22261 22262 1 115.00000 209.200000
6931 22263 10047 1 109.50000 418.400000
6931 22263 11078 1 109.50000 418.400000
6931 22263 22264 1 109.50000 418.400000
10047 22263 11078 1 109.50000 418.400000
10047 22263 22264 1 109.50000 418.400000
11078 22263 22264 1 109.50000 418.400000
22263 22264 22265 1 115.00000 209.200000
1112 22266 5188 1 109.50000 418.400000
1112 22266 9395 1 109.50000 418.400000
1112 22266 22267 1 109.50000 418.400000
5188 22266 9395 1 109.50000 418.400000
5188 22266 22267 1 109.50000 418.400000
9395 22266 22267 1 109.50000 418.400000
22266 22267 22268 1 115.00000 209.200000
1751 22269 4604 1 109.50000 418.400000
1751 22269 10764 1 109.50000 418.400000
1751 22269 22270 1 109.50000 418.400000
4604 22269 10764 1 109.50000 418.400000
4604 22269 22270 1 109.50000 418.400000
10764 22269 22270 1 109.50000 418.400000
22269 22270 22271 1 115.00000 209.200000
1407 22272 10329 1 109.50000 418.400000
1407 22272 10385 1 109.50000 418.400000
1407 22272 22273 1 109.50000 418.400000
10329 22272 10385 1 109.50000 418.400000
10329 22272 22273 1 109.50000 418.400000
10385 22272 22273 1 109.50000 418.400000
22272 22273 22274 1 115.00000 209.200000
245 22275 1120 1 109.50000 418.400000
245 22275 10790 1 109.50000 418.400000
245 22275 22276 1 109.50000 418.400000
1120 22275 10790 1 109.50000 418.400000
1120 22275 22276 1 109.50000 418.400000
10790 22275 22276 1 109.50000 418.400000
22275 22276 22277 1 115.00000 209.200000
6150 22278 7638 1 109.50000 418.400000
6150 22278 11014 1 109.50000 418.400000
6150 22278 22279 1 109.50000 418.400000
7638 22278 11014 1 109.50000 418.400000
7638 22278 22279 1 109.50000 418.400000
11014 22278 22279 1 109.50000 418.400000
22278 22279 22280 1 115.00000 209.200000
1224 22281 4238 1 109.50000 418.400000
1224 22281 8760 1 109.50000 418.400000
1224 22281 22282 1 109.50000 418.400000
4238 22281 8760 1 109.50000 418.400000
4238 22281 22282 1 109.50000 418.400000
8760 22281 22282 1 109.50000 418.400000
22281 22282 22283 1 115.00000 209.200000
2452 22284 8619 1 109.50000 418.400000
2452 22284 8954 1 109.50000 418.400000
2452 22284 22285 1 109.50000 418.400000
8619 22284 8954 1 109.50000 418.400000
8619 22284 22285 1 109.50000 418.400000
8954 22284 22285 1 109.50000 418.400000
22284 22285 22286 1 115.00000 209.200000
4779 22287 6100 1 109.50000 418.400000
4779 22287 9541 1 109.50000 418.400000
4779 22287 22288 1 109.50000 418.400000
6100 22287 9541 1 109.50000 418.400000
6100 22287 22288 1 109.50000 418.400000
9541 22287 22288 1 109.50000 418.400000
22287 22288 22289 1 115.00000 209.200000
1984 22290 3195 1 109.50000 418.400000
1984 22290 10747 1 109.50000 418.400000
1984 22290 22291 1 109.50000 418.400000
3195 22290 10747 1 109.50000 418.400000
3195 22290 22291 1 109.50000 418.400000
10747 22290 22291 1 109.50000 418.400000
22290 22291 22292 1 115.00000 209.200000
9835 22293 10766 1 109.50000 418.400000
9835 22293 11081 1 109.50000 418.400000
9835 22293 22294 1 109.50000 418.400000
10766 22293 11081 1 109.50000 418.400000
10766 22293 22294 1 109.50000 418.400000
11081 22293 22294 1 109.50000 418.400000
22293 22294 22295 1 115.00000 209.200000
3974 22296 4432 1 109.50000 418.400000
3974 22296 4519 1 109.50000 418.400000
3974 22296 22297 1 109.50000 418.400000
4432 22296 4519 1 109.50000 418.400000
4432 22296 22297 1 109.50000 418.400000
4519 22296 22297 1 109.50000 418.400000
22296 22297 22298 1 115.00000 209.200000
6567 22299 9576 1 109.50000 418.400000
6567 22299 10603 1 109.50000 418.400000
6567 22299 22300 1 109.50000 418.400000
9576 22299 10603 1 109.50000 418.400000
9576 22299 22300 1 109.50000 418.400000
10603 22299 22300 1 109.50000 418.400000
22299 22300 22301 1 115.00000 209.200000
3775 22302 5269 1 109.50000 418.400000
3775 22302 7991 1 109.50000 418.400000
3775 22302 22303 1 109.50000 418.400000
5269 22302 7991 1 109.50000 418.400000
5269 22302 22303 1 109.50000 418.400000
7991 22302 22303 1 109.50000 418.400000
22302 22303 22304 1 115.00000 209.200000
2036 22305 9578 1 109.50000 418.400000
2036 22305 10004 1 109.50000 418.400000
2036 22305 22306 1 109.50000 418.400000
9578 22305 10004 1 109.50000 418.400000
9578 22305 22306 1 109.50000 418.400000
10004 22305 22306 1 109.50000 418.400000
22305 22306 22307 1 115.00000 209.200000
9903 22308 10158 1 109.50000 418.400000
9903 22308 10413 1 109.50000 418.400000
9903 22308 22309 1 109.50000 418.400000
10158 22308 10413 1 109.50000 418.400000
10158 22308 22309 1 109.50000 418.400000
10413 22308 22309 1 109.50000 418.400000
22308 22309 22310 1 115.00000 209.200000
1922 22311 5841 1 109.50000 418.400000
1922 22311 6262 1 109.50000 418.400000
1922 22311 22312 1 109.50000 418.400000
5841 22311 6262 1 109.50000 418.400000
5841 22311 22312 1 109.50000 418.400000
6262 22311 22312 1 109.50000 418.400000
22311 22312 22313 1 115.00000 209.200000
6698 22314 11049 1 109.50000 418.400000
6698 22314 11116 1 109.50000 418.400000
6698 22314 22315 1 109.50000 418.400000
11049 22314 11116 1 109.50000 418.400000
11049 22314 22315 1 109.50000 418.400000
11116 22314 22315 1 109.50000 418.400000
22314 22315 22316 1 115.00000 209.200000
7008 22317 7978 1 109.50000 418.400000
7008 22317 10582 1 109.50000 418.400000
7008 22317 22318 1 109.50000 418.400000
7978 22317 10582 1 109.50000 418.400000
7978 22317 22318 1 109.50000 418.400000
10582 22317 22318 1 109.50000 418.400000
22317 22318 22319 1 115.00000 209.200000
5468 22320 8361 1 109.50000 418.400000
5468 22320 11029 1 109.50000 418.400000
5468 22320 22321 1 109.50000 418.400000
8361 22320 11029 1 109.50000 418.400000
8361 22320 22321 1 109.50000 418.400000
11029 22320 22321 1 109.50000 418.400000
22320 22321 22322 1 115.00000 209.200000
785 22323 3463 1 109.50000 418.400000
785 22323 6500 1 109.50000 418.400000
785 22323 22324 1 109.50000 418.400000
3463 22323 6500 1 109.50000 418.400000
3463 22323 22324 1 109.50000 418.400000
6500 22323 22324 1 109.50000 418.400000
22323 22324 22325 1 115.00000 209.200000
7908 22326 10711 1 109.50000 418.400000
7908 22326 11044 1 109.50000 418.400000
7908 22326 22327 1 109.50000 418.400000
10711 22326 11044 1 109.50000 418.400000
10711 22326 22327 1 109.50000 418.400000
11044 22326 22327 1 109.50000 418.400000
22326 22327 22328 1 115.00000 209.200000
6538 22329 10087 1 109.50000 418.400000
6538 22329 10670 1 109.50000 418.400000
6538 22329 22330 1 109.50000 418.400000
10087 22329 10670 1 109.50000 418.400000
10087 22329 22330 1 109.50000 418.400000
10670 22329 22330 1 109.50000 418.400000
22329 22330 22331 1 115.00000 209.200000
6341 22332 7990 1 109.50000 418.400000
6341 22332 11125 1 109.50000 418.400000
6341 22332 22333 1 109.50000 418.400000
7990 22332 11125 1 109.50000 418.400000
7990 22332 22333 1 109.50000 418.400000
11125 22332 22333 1 109.50000 418.400000
22332 22333 22334 1 115.00000 209.200000
4119 22335 6915 1 109.50000 418.400000
4119 22335 10371 1 109.50000 418.400000
4119 22335 22336 1 109.50000 418.400000
6915 22335 10371 1 109.50000 418.400000
6915 22335 22336 1 109.50000 418.400000
10371 22335 22336 1 109.50000 418.400000
22335 22336 22337 1 115.00000 209.200000
122 22338 867 1 109.50000 418.400000
122 22338 10945 1 109.50000 418.400000
122 22338 22339 1 109.50000 418.400000
867 22338 10945 1 109.50000 418.400000
867 22338 22339 1 109.50000 418.400000
10945 22338 22339 1 109.50000 418.400000
22338 22339 22340 1 115.00000 209.200000
5415 22341 9807 1 109.50000 418.400000
5415 22341 10083 1 109.50000 418.400000
5415 22341 22342 1 109.50000 418.400000
9807 22341 10083 1 109.50000 418.400000
9807 22341 22342 1 109.50000 418.400000
10083 22341 22342 1 109.50000 418.400000
22341 22342 22343 1 115.00000 209.200000
3736 22344 7627 1 109.50000 418.400000
3736 22344 9844 1 109.50000 418.400000
3736 22344 22345 1 109.50000 418.400000
7627 22344 9844 1 109.50000 418.400000
7627 22344 22345 1 109.50000 418.400000
9844 22344 22345 1 109.50000 418.400000
22344 22345 22346 1 115.00000 209.200000
2652 22347 7037 1 109.50000 418.400000
2652 22347 10555 1 109.50000 418.400000
2652 22347 22348 1 109.50000 418.400000
7037 22347 10555 1 109.50000 418.400000
7037 22347 22348 1 109.50000 418.400000
10555 22347 22348 1 109.50000 418.400000
22347 22348 22349 1 115.00000 209.200000
4733 22350 9971 1 109.50000 418.400000
4733 22350 10036 1 109.50000 418.400000
4733 22350 22351 1 109.50000 418.400000
9971 22350 10036 1 109.50000 418.400000
9971 22350 22351 1 109.50000 418.400000
10036 22350 22351 1 109.50000 418.400000
22350 22351 22352 1 115.00000 209.200000
5540 22353 8923 1 109.50000 418.400000
5540 22353 10632 1 109.50000 418.400000
5540 22353 22354 1 109.50000 418.400000
8923 22353 10632 1 109.50000 418.400000
8923 22353 22354 1 109.50000 418.400000
10632 22353 22354 1 109.50000 418.400000
22353 22354 22355 1 115.00000 209.200000
6151 22356 8081 1 109.50000 418.400000
6151 22356 10148 1 109.50000 418.400000
6151 22356 22357 1 109.50000 418.400000
8081 22356 10148 1 109.50000 418.400000
8081 22356 22357 1 109.50000 418.400000
10148 22356 22357 1 109.50000 418.400000
22356 22357 22358 1 115.00000 209.200000
9691 22359 10852 1 109.50000 418.400000
9691 22359 22360 1 109.50000 418.400000
9691 22359 22362 1 109.50000 418.400000
10852 22359 22360 1 109.50000 418.400000
10852 22359 22362 1 109.50000 418.400000
22360 22359 22362 1 109.50000 418.400000
22359 22360 22361 1 115.00000 209.200000
22359 22362 22363 1 115.00000 209.200000
10124 22364 11062 1 109.50000 418.400000
10124 22364 22365 1 109.50000 418.400000
10124 22364 22367 1 109.50000 418.400000
11062 22364 22365 1 109.50000 418.400000
11062 22364 22367 1 109.50000 418.400000
22365 22364 22367 1 109.50000 418.400000
22364 22365 22366 1 115.00000 209.200000
22364 22367 22368 1 115.00000 209.200000
7813 22369 10355 1 109.50000 418.400000
7813 22369 22370 1 109.50000 418.400000
7813 22369 22372 1 109.50000 418.400000
10355 22369 22370 1 109.50000 418.400000
10355 22369 22372 1 109.50000 418.400000
22370 22369 22372 1 109.50000 418.400000
22369 22370 22371 1 115.00000 209.200000
22369 22372 22373 1 115.00000 209.200000
8865 22374 9164 1 109.50000 418.400000
8865 22374 22375 1 109.50000 418.400000
8865 22374 22377 1 109.50000 418.400000
9164 22374 22375 1 109.50000 418.400000
9164 22374 22377 1 109.50000 418.400000
22375 22374 22377 1 109.50000 418.400000
22374 22375 22376 1 115.00000 209.200000
22374 22377 22378 1 115.00000 209.200000
3543 22379 11092 1 109.50000 418.400000
3543 22379 22380 1 109.50000 418.400000
3543 22379 22382 1 109.50000 418.400000
11092 22379 22380 1 109.50000 418.400000
11092 22379 22382 1 109.50000 418.400000
22380 22379 22382 1 109.50000 418.400000
22379 22380 22381 1 115.00000 209.200000
22379 22382 22383 1 115.00000 209.200000
1231 22384 3418 1 109.50000 418.400000
1231 22384 22385 1 109.50000 418.400000
1231 22384 22387 1 109.50000 418.400000
3418 22384 22385 1 109.50000 418.400000
3418 22384 22387 1 109.50000 418.400000
22385 22384 22387 1 109.50000 418.400000
22384 22385 22386 1 115.00000 209.200000
22384 22387 22388 1 115.00000 209.200000
2780 22389 4587 1 109.50000 418.400000
2780 22389 22390 1 109.50000 418.400000
2780 22389 22392 1 109.50000 418.400000
4587 22389 22390 1 109.50000 418.400000
4587 22389 22392 1 109.50000 418.400000
22390 22389 22392 1 109.50000 418.400000
22389 22390 22391 1 115.00000 209.200000
22389 22392 22393 1 115.00000 209.200000
7863 22394 10587 1 109.50000 418.400000
7863 22394 22395 1 109.50000 418.400000
7863 22394 22397 1 109.50000 418.400000
10587 22394 22395 1 109.50000 418.400000
10587 22394 22397 1 109.50000 418.400000
22395 22394 22397 1 109.50000 418.400000
22394 22395 22396 1 115.00000 209.200000
22394 22397 22398 1 115.00000 209.200000
9402 22399 11097 1 109.50000 418.400000
9402 22399 22400 1 109.50000 418.400000
9402 22399 22402 1 109.50000 418.400000
11097 22399 22400 1 109.50000 418.400000
11097 22399 22402 1 109.50000 418.400000
22400 22399 22402 1 109.50000 418.400000
22399 22400 22401 1 115.00000 209.200000
22399 22402 22403 1 115.00000 209.200000
7551 22404 8520 1 109.50000 418.400000
7551 22404 22405 1 109.50000 418.400000
7551 22404 22407 1 109.50000 418.400000
8520 22404 22405 1 109.50000 418.400000
8520 22404 22407 1 109.50000 418.400000
22405 22404 22407 1 109.50000 418.400000
22404 22405 22406 1 115.00000 209.200000
22404 22407 22408 1 115.00000 209.200000
7909 22409 10821 1 109.50000 418.400000
7909 22409 22410 1 109.50000 418.400000
7909 22409 22412 1 109.50000 418.400000
10821 22409 22410 1 109.50000 418.400000
10821 22409 22412 1 109.50000 418.400000
22410 22409 22412 1 109.50000 418.400000
22409 22410 22411 1 115.00000 209.200000
22409 22412 22413 1 115.00000 209.200000
2914 22414 5091 1 109.50000 418.400000
2914 22414 22415 1 109.50000 418.400000
2914 22414 22417 1 109.50000 418.400000
5091 22414 22415 1 109.50000 418.400000
5091 22414 22417 1 109.50000 418.400000
22415 22414 22417 1 109.50000 418.400000
22414 22415 22416 1 115.00000 209.200000
22414 22417 22418 1 115.00000 209.200000
10222 22419 11032 1 109.50000 418.400000
10222 22419 22420 1 109.50000 418.400000
10222 22419 22422 1 109.50000 418.400000
11032 22419 22420 1 109.50000 418.400000
11032 22419 22422 1 109.50000 418.400000
22420 22419 22422 1 109.50000 418.400000
22419 22420 22421 1 115.00000 209.200000
22419 22422 22423 1 115.00000 209.200000
8511 22424 10784 1 109.50000 418.400000
8511 22424 22425 1 109.50000 418.400000
8511 22424 22427 1 109.50000 418.400000
10784 22424 22425 1 109.50000 418.400000
10784 22424 22427 1 109.50000 418.400000
22425 22424 22427 1 109.50000 418.400000
22424 22425 22426 1 115.00000 209.200000
22424 22427 22428 1 115.00000 209.200000
1993 22429 10550 1 109.50000 418.400000
1993 22429 22430 1 109.50000 418.400000
1993 22429 22432 1 109.50000 418.400000
10550 22429 22430 1 109.50000 418.400000
10550 22429 22432 1 109.50000 418.400000
22430 22429 22432 1 109.50000 418.400000
22429 22430 22431 1 115.00000 209.200000
22429 22432 22433 1 115.00000 209.200000
4168 22434 9877 1 109.50000 418.400000
4168 22434 22435 1 109.50000 418.400000
4168 22434 22437 1 109.50000 418.400000
9877 22434 22435 1 109.50000 418.400000
9877 22434 22437 1 109.50000 418.400000
22435 22434 22437 1 109.50000 418.400000
22434 22435 22436 1 115.00000 209.200000
22434 22437 22438 1 115.00000 209.200000
7598 22439 10808 1 109.50000 418.400000
7598 22439 22440 1 109.50000 418.400000
7598 22439 22442 1 109.50000 418.400000
10808 22439 22440 1 109.50000 418.400000
10808 22439 22442 1 109.50000 418.400000
22440 22439 22442 1 109.50000 418.400000
22439 22440 22441 1 115.00000 209.200000
22439 22442 22443 1 115.00000 209.200000
3569 22444 8097 1 109.50000 418.400000
3569 22444 22445 1 109.50000 418.400000
3569 22444 22447 1 109.50000 418.400000
8097 22444 22445 1 109.50000 418.400000
8097 22444 22447 1 109.50000 418.400000
22445 22444 22447 1 109.50000 418.400000
22444 22445 22446 1 115.00000 209.200000
22444 22447 22448 1 115.00000 209.200000
10053 22449 10545 1 109.50000 418.400000
10053 22449 22450 1 109.50000 418.400000
10053 22449 22452 1 109.50000 418.400000
10545 22449 22450 1 109.50000 418.400000
10545 22449 22452 1 109.50000 418.400000
22450 22449 22452 1 109.50000 418.400000
22449 22450 22451 1 115.00000 209.200000
22449 22452 22453 1 115.00000 209.200000
8841 22454 10957 1 109.50000 418.400000
8841 22454 22455 1 109.50000 418.400000
8841 22454 22457 1 109.50000 418.400000
10957 22454 22455 1 109.50000 418.400000
10957 22454 22457 1 109.50000 418.400000
22455 22454 22457 1 109.50000 418.400000
22454 22455 22456 1 115.00000 209.200000
22454 22457 22458 1 115.00000 209.200000
3633 22459 3635 1 109.50000 418.400000
3633 22459 22460 1 109.50000 418.400000
3633 22459 22462 1 109.50000 418.400000
3635 22459 22460 1 109.50000 418.400000
3635 22459 22462 1 109.50000 418.400000
22460 22459 22462 1 109.50000 418.400000
22459 22460 22461 1 115.00000 209.200000
22459 22462 22463 1 115.00000 209.200000
5997 22464 10786 1 109.50000 418.400000
5997 22464 22465 1 109.50000 418.400000
5997 22464 22467 1 109.50000 418.400000
10786 22464 22465 1 109.50000 418.400000
10786 22464 22467 1 109.50000 418.400000
22465 22464 22467 1 109.50000 418.400000
22464 22465 22466 1 115.00000 209.200000
22464 22467 22468 1 115.00000 209.200000
3013 22469 11137 1 109.50000 418.400000
3013 22469 22470 1 109.50000 418.400000
3013 22469 22472 1 109.50000 418.400000
11137 22469 22470 1 109.50000 418.400000
11137 22469 22472 1 109.50000 418.400000
22470 22469 22472 1 109.50000 418.400000
22469 22470 22471 1 115.00000 209.200000
22469 22472 22473 1 115.00000 209.200000

[ dihedrals ]
; ai aj ak al funct params
16527 16528 16529 16530 1 180.0000771 15.1670000 2
16527 16528 16529 16531 1 180.0000771 15.1670000 2
16530 16528 16529 16531 4 180.0000771 4.6024000 2
16527 16528 16537 16529 4 180.0000771 4.6024000 2
16527 16528 16537 16535 1 180.0000771 15.1670000 2
16527 16528 16537 16538 1 180.0000771 15.1670000 2
16529 16528 16537 16535 1 180.0000771 15.1670000 2
16529 16528 16537 16538 1 180.0000771 15.1670000 2
16530 16529 16528 16537 1 180.0000771 15.1670000 2
16531 16529 16528 16537 1 180.0000771 15.1670000 2
16528 16529 16531 16532 1 180.0000771 15.1670000 2
16528 16529 16531 16533 1 180.0000771 15.1670000 2
16530 16529 16531 16532 1 180.0000771 15.1670000 2
16530 16529 16531 16533 1 180.0000771 15.1670000 2
16529 16531 16533 16534 1 180.0000771 15.1670000 2
16529 16531 16533 16535 1 180.0000771 15.1670000 2
16532 16531 16533 16534 1 180.0000771 15.1670000 2
16532 16531 16533 16535 1 180.0000771 15.1670000 2
16529 16533 16531 16532 4 180.0000771 4.6024000 2
16531 16533 16535 16536 1 180.0000771 15.1670000 2
16531 16533 16535 16537 1 180.0000771 15.1670000 2
16534 16533 16535 16536 1 180.0000771 15.1670000 2
16534 16533 16535 16537 1 180.0000771 15.1670000 2
16531 16535 16533 16534 4 180.0000771 4.6024000 2
16528 16535 16537 16538 4 180.0000771 4.6024000 2
16533 16535 16537 16538 1 180.0000771 15.1670000 2
16536 16535 16537 16538 1 180.0000771 15.1670000 2
16528 16537 16535 16533 1 180.0000771 15.1670000 2
16528 16537 16535 16536 1 180.0000771 15.1670000 2
16533 16537 16535 16536 4 180.0000771 4.6024000 2
16541 16542 16543 16544 1 180.0000771 15.1670000 2
16541 16542 16543 16545 1 180.0000771 15.1670000 2
16544 16542 16543 16545 4 180.0000771 4.6024000 2
16541 16542 16551 16543 4 180.0000771 4.6024000 2
16541 16542 16551 16549 1 180.0000771 15.1670000 2
16541 16542 16551 16552 1 180.0000771 15.1670000 2
16543 16542 16551 16549 1 180.0000771 15.1670000 2
16543 16542 16551 16552 1 180.0000771 15.1670000 2
16544 16543 16542 16551 1 180.0000771 15.1670000 2
16545 16543 16542 16551 1 180.0000771 15.1670000 2
16542 16543 16545 16546 1 180.0000771 15.1670000 2
16542 16543 16545 16547 1 180.0000771 15.1670000 2
16544 16543 16545 16546 1 180.0000771 15.1670000 2
16544 16543 16545 16547 1 180.0000771 15.1670000 2
16543 16545 16547 16548 1 180.0000771 15.1670000 2
16543 16545 16547 16549 1 180.0000771 15.1670000 2
16546 16545 16547 16548 1 180.0000771 15.1670000 2
16546 16545 16547 16549 1 180.0000771 15.1670000 2
16543 16547 16545 16546 4 180.0000771 4.6024000 2
16545 16547 16549 16550 1 180.0000771 15.1670000 2
16545 16547 16549 16551 1 180.0000771 15.1670000 2
16548 16547 16549 16550 1 180.0000771 15.1670000 2
16548 16547 16549 16551 1 180.0000771 15.1670000 2
16545 16549 16547 16548 4 180.0000771 4.6024000 2
16542 16549 16551 16552 4 180.0000771 4.6024000 2
16547 16549 16551 16552 1 180.0000771 15.1670000 2
16550 16549 16551 16552 1 180.0000771 15.1670000 2
16542 16551 16549 16547 1 180.0000771 15.1670000 2
16542 16551 16549 16550 1 180.0000771 15.1670000 2
16547 16551 16549 16550 4 180.0000771 4.6024000 2
16555 16556 16557 16558 1 180.0000771 15.1670000 2
16555 16556 16557 16559 1 180.0000771 15.1670000 2
16558 16556 16557 16559 4 180.0000771 4.6024000 2
16555 16556 16565 16557 4 180.0000771 4.6024000 2
16555 16556 16565 16563 1 180.0000771 15.1670000 2
16555 16556 16565 16566 1 180.0000771 15.1670000 2
16557 16556 16565 16563 1 180.0000771 15.1670000 2
16557 16556 16565 16566 1 180.0000771 15.1670000 2
16558 16557 16556 16565 1 180.0000771 15.1670000 2
16559 16557 16556 16565 1 180.0000771 15.1670000 2
16556 16557 16559 16560 1 180.0000771 15.1670000 2
16556 16557 16559 16561 1 180.0000771 15.1670000 2
16558 16557 16559 16560 1 180.0000771 15.1670000 2
16558 16557 16559 16561 1 180.0000771 15.1670000 2
16557 16559 16561 16562 1 180.0000771 15.1670000 2
16557 16559 16561 16563 1 180.0000771 15.1670000 2
16560 16559 16561 16562 1 180.0000771 15.1670000 2
16560 16559 16561 16563 1 180.0000771 15.1670000 2
16557 16561 16559 16560 4 180.0000771 4.6024000 2
16559 16561 16563 16564 1 180.0000771 15.1670000 2
16559 16561 16563 16565 1 180.0000771 15.1670000 2
16562 16561 16563 16564 1 180.0000771 15.1670000 2
16562 16561 16563 16565 1 180.0000771 15.1670000 2
16559 16563 16561 16562 4 180.0000771 4.6024000 2
16556 16563 16565 16566 4 180.0000771 4.6024000 2
16561 16563 16565 16566 1 180.0000771 15.1670000 2
16564 16563 16565 16566 1 180.0000771 15.1670000 2
16556 16565 16563 16561 1 180.0000771 15.1670000 2
16556 16565 16563 16564 1 180.0000771 15.1670000 2
16561 16565 16563 16564 4 180.0000771 4.6024000 2
16569 16570 16571 16572 1 180.0000771 15.1670000 2
16569 16570 16571 16573 1 180.0000771 15.1670000 2
16572 16570 16571 16573 4 180.0000771 4.6024000 2
16569 16570 16579 16571 4 180.0000771 4.6024000 2
16569 16570 16579 16577 1 180.0000771 15.1670000 2
16569 16570 16579 16580 1 180.0000771 15.1670000 2
16571 16570 16579 16577 1 180.0000771 15.1670000 2
16571 16570 16579 16580 1 180.0000771 15.1670000 2
16572 16571 16570 16579 1 180.0000771 15.1670000 2
16573 16571 16570 16579 1 180.0000771 15.1670000 2
16570 16571 16573 16574 1 180.0000771 15.1670000 2
16570 16571 16573 16575 1 180.0000771 15.1670000 2
16572 16571 16573 16574 1 180.0000771 15.1670000 2
16572 16571 16573 16575 1 180.0000771 15.1670000 2
16571 16573 16575 16576 1 180.0000771 15.1670000 2
16571 16573 16575 16577 1 180.0000771 15.1670000 2
16574 16573 16575 16576 1 180.0000771 15.1670000 2
16574 16573 16575 16577 1 180.0000771 15.1670000 2
16571 16575 16573 16574 4 180.0000771 4.6024000 2
16573 16575 16577 16578 1 180.0000771 15.1670000 2
16573 16575 16577 16579 1 180.0000771 15.1670000 2
16576 16575 16577 16578 1 180.0000771 15.1670000 2
16576 16575 16577 16579 1 180.0000771 15.1670000 2
16573 16577 16575 16576 4 180.0000771 4.6024000 2
16570 16577 16579 16580 4 180.0000771 4.6024000 2
16575 16577 16579 16580 1 180.0000771 15.1670000 2
16578 16577 16579 16580 1 180.0000771 15.1670000 2
16570 16579 16577 16575 1 180.0000771 15.1670000 2
16570 16579 16577 16578 1 180.0000771 15.1670000 2
16575 16579 16577 16578 4 180.0000771 4.6024000 2
16583 16584 16585 16586 1 180.0000771 15.1670000 2
16583 16584 16585 16587 1 180.0000771 15.1670000 2
16586 16584 16585 16587 4 180.0000771 4.6024000 2
16583 16584 16593 16585 4 180.0000771 4.6024000 2
16583 16584 16593 16591 1 180.0000771 15.1670000 2
16583 16584 16593 16594 1 180.0000771 15.1670000 2
16585 16584 16593 16591 1 180.0000771 15.1670000 2
16585 16584 16593 16594 1 180.0000771 15.1670000 2
16586 16585 16584 16593 1 180.0000771 15.1670000 2
16587 16585 16584 16593 1 180.0000771 15.1670000 2
16584 16585 16587 16588 1 180.0000771 15.1670000 2
16584 16585 16587 16589 1 180.0000771 15.1670000 2
16586 16585 16587 16588 1 180.0000771 15.1670000 2
16586 16585 16587 16589 1 180.0000771 15.1670000 2
16585 16587 16589 16590 1 180.0000771 15.1670000 2
16585 16587 16589 16591 1 180.0000771 15.1670000 2
16588 16587 16589 16590 1 180.0000771 15.1670000 2
16588 16587 16589 16591 1 180.0000771 15.1670000 2
16585 16589 16587 16588 4 180.0000771 4.6024000 2
16587 16589 16591 16592 1 180.0000771 15.1670000 2
16587 16589 16591 16593 1 180.0000771 15.1670000 2
16590 16589 16591 16592 1 180.0000771 15.1670000 2
16590 16589 16591 16593 1 180.0000771 15.1670000 2
16587 16591 16589 16590 4 180.0000771 4.6024000 2
16584 16591 16593 16594 4 180.0000771 4.6024000 2
16589 16591 16593 16594 1 180.0000771 15.1670000 2
16592 16591 16593 16594 1 180.0000771 15.1670000 2
16584 16593 16591 16589 1 180.0000771 15.1670000 2
16584 16593 16591 16592 1 180.0000771 15.1670000 2
16589 16593 16591 16592 4 180.0000771 4.6024000 2
16597 16598 16599 16600 1 180.0000771 15.1670000 2
16597 16598 16599 16601 1 180.0000771 15.1670000 2
16600 16598 16599 16601 4 180.0000771 4.6024000 2
16597 16598 16607 16599 4 180.0000771 4.6024000 2
16597 16598 16607 16605 1 180.0000771 15.1670000 2
16597 16598 16607 16608 1 180.0000771 15.1670000 2
16599 16598 16607 16605 1 180.0000771 15.1670000 2
16599 16598 16607 16608 1 180.0000771 15.1670000 2
16600 16599 16598 16607 1 180.0000771 15.1670000 2
16601 16599 16598 16607 1 180.0000771 15.1670000 2
16598 16599 16601 16602 1 180.0000771 15.1670000 2
16598 16599 16601 16603 1 180.0000771 15.1670000 2
16600 16599 16601 16602 1 180.0000771 15.1670000 2
16600 16599 16601 16603 1 180.0000771 15.1670000 2
16599 16601 16603 16604 1 180.0000771 15.1670000 2
16599 16601 16603 16605 1 180.0000771 15.1670000 2
16602 16601 16603 16604 1 180.0000771 15.1670000 2
16602 16601 16603 16605 1 180.0000771 15.1670000 2
16599 16603 16601 16602 4 180.0000771 4.6024000 2
16601 16603 16605 16606 1 180.0000771 15.1670000 2
16601 16603 16605 16607 1 180.0000771 15.1670000 2
16604 16603 16605 16606 1 180.0000771 15.1670000 2
16604 16603 16605 16607 1 180.0000771 15.1670000 2
16601 16605 16603 16604 4 180.0000771 4.6024000 2
16598 16605 16607 16608 4 180.0000771 4.6024000 2
16603 16605 16607 16608 1 180.0000771 15.1670000 2
16606 16605 16607 16608 1 180.0000771 15.1670000 2
16598 16607 16605 16603 1 180.0000771 15.1670000 2
16598 16607 16605 16606 1 180.0000771 15.1670000 2
16603 16607 16605 16606 4 180.0000771 4.6024000 2
16611 16612 16613 16614 1 180.0000771 15.1670000 2
16611 16612 16613 16615 1 180.0000771 15.1670000 2
16614 16612 16613 16615 4 180.0000771 4.6024000 2
16611 16612 16621 16613 4 180.0000771 4.6024000 2
16611 16612 16621 16619 1 180.0000771 15.1670000 2
16611 16612 16621 16622 1 180.0000771 15.1670000 2
16613 16612 16621 16619 1 180.0000771 15.1670000 2
16613 16612 16621 16622 1 180.0000771 15.1670000 2
16614 16613 16612 16621 1 180.0000771 15.1670000 2
16615 16613 16612 16621 1 180.0000771 15.1670000 2
16612 16613 16615 16616 1 180.0000771 15.1670000 2
16612 16613 16615 16617 1 180.0000771 15.1670000 2
16614 16613 16615 16616 1 180.0000771 15.1670000 2
16614 16613 16615 16617 1 180.0000771 15.1670000 2
16613 16615 16617 16618 1 180.0000771 15.1670000 2
16613 16615 16617 16619 1 180.0000771 15.1670000 2
16616 16615 16617 16618 1 180.0000771 15.1670000 2
16616 16615 16617 16619 1 180.0000771 15.1670000 2
16613 16617 16615 16616 4 180.0000771 4.6024000 2
16615 16617 16619 16620 1 180.0000771 15.1670000 2
16615 16617 16619 16621 1 180.0000771 15.1670000 2
16618 16617 16619 16620 1 180.0000771 15.1670000 2
16618 16617 16619 16621 1 180.0000771 15.1670000 2
16615 16619 16617 16618 4 180.0000771 4.6024000 2
16612 16619 16621 16622 4 180.0000771 4.6024000 2
16617 16619 16621 16622 1 180.0000771 15.1670000 2
16620 16619 16621 16622 1 180.0000771 15.1670000 2
16612 16621 16619 16617 1 180.0000771 15.1670000 2
16612 16621 16619 16620 1 180.0000771 15.1670000 2
16617 16621 16619 16620 4 180.0000771 4.6024000 2
16625 16626 16627 16628 1 180.0000771 15.1670000 2
16625 16626 16627 16629 1 180.0000771 15.1670000 2
16628 16626 16627 16629 4 180.0000771 4.6024000 2
16625 16626 16635 16627 4 180.0000771 4.6024000 2
16625 16626 16635 16633 1 180.0000771 15.1670000 2
16625 16626 16635 16636 1 180.0000771 15.1670000 2
16627 16626 16635 16633 1 180.0000771 15.1670000 2
16627 16626 16635 16636 1 180.0000771 15.1670000 2
16628 16627 16626 16635 1 180.0000771 15.1670000 2
16629 16627 16626 16635 1 180.0000771 15.1670000 2
16626 16627 16629 16630 1 180.0000771 15.1670000 2
16626 16627 16629 16631 1 180.0000771 15.1670000 2
16628 16627 16629 16630 1 180.0000771 15.1670000 2
16628 16627 16629 16631 1 180.0000771 15.1670000 2
16627 16629 16631 16632 1 180.0000771 15.1670000 2
16627 16629 16631 16633 1 180.0000771 15.1670000 2
16630 16629 16631 16632 1 180.0000771 15.1670000 2
16630 16629 16631 16633 1 180.0000771 15.1670000 2
16627 16631 16629 16630 4 180.0000771 4.6024000 2
16629 16631 16633 16634 1 180.0000771 15.1670000 2
16629 16631 16633 16635 1 180.0000771 15.1670000 2
16632 16631 16633 16634 1 180.0000771 15.1670000 2
16632 16631 16633 16635 1 180.0000771 15.1670000 2
16629 16633 16631 16632 4 180.0000771 4.6024000 2
16626 16633 16635 16636 4 180.0000771 4.6024000 2
16631 16633 16635 16636 1 180.0000771 15.1670000 2
16634 16633 16635 16636 1 180.0000771 15.1670000 2
16626 16635 16633 16631 1 180.0000771 15.1670000 2
16626 16635 16633 16634 1 180.0000771 15.1670000 2
16631 16635 16633 16634 4 180.0000771 4.6024000 2
16639 16640 16641 16642 1 180.0000771 15.1670000 2
16639 16640 16641 16643 1 180.0000771 15.1670000 2
16642 16640 16641 16643 4 180.0000771 4.6024000 2
16639 16640 16649 16641 4 180.0000771 4.6024000 2
16639 16640 16649 16647 1 180.0000771 15.1670000 2
16639 16640 16649 16650 1 180.0000771 15.1670000 2
16641 16640 16649 16647 1 180.0000771 15.1670000 2
16641 16640 16649 16650 1 180.0000771 15.1670000 2
16642 16641 16640 16649 1 180.0000771 15.1670000 2
16643 16641 16640 16649 1 180.0000771 15.1670000 2
16640 16641 16643 16644 1 180.0000771 15.1670000 2
16640 16641 16643 16645 1 180.0000771 15.1670000 2
16642 16641 16643 16644 1 180.0000771 15.1670000 2
16642 16641 16643 16645 1 180.0000771 15.1670000 2
16641 16643 16645 16646 1 180.0000771 15.1670000 2
16641 16643 16645 16647 1 180.0000771 15.1670000 2
16644 16643 16645 16646 1 180.0000771 15.1670000 2
16644 16643 16645 16647 1 180.0000771 15.1670000 2
16641 16645 16643 16644 4 180.0000771 4.6024000 2
16643 16645 16647 16648 1 180.0000771 15.1670000 2
16643 16645 16647 16649 1 180.0000771 15.1670000 2
16646 16645 16647 16648 1 180.0000771 15.1670000 2
16646 16645 16647 16649 1 180.0000771 15.1670000 2
16643 16647 16645 16646 4 180.0000771 4.6024000 2
16640 16647 16649 16650 4 180.0000771 4.6024000 2
16645 16647 16649 16650 1 180.0000771 15.1670000 2
16648 16647 16649 16650 1 180.0000771 15.1670000 2
16640 16649 16647 16645 1 180.0000771 15.1670000 2
16640 16649 16647 16648 1 180.0000771 15.1670000 2
16645 16649 16647 16648 4 180.0000771 4.6024000 2
16653 16654 16655 16656 1 180.0000771 15.1670000 2
16653 16654 16655 16657 1 180.0000771 15.1670000 2
16656 16654 16655 16657 4 180.0000771 4.6024000 2
16653 16654 16663 16655 4 180.0000771 4.6024000 2
16653 16654 16663 16661 1 180.0000771 15.1670000 2
16653 16654 16663 16664 1 180.0000771 15.1670000 2
16655 16654 16663 16661 1 180.0000771 15.1670000 2
16655 16654 16663 16664 1 180.0000771 15.1670000 2
16656 16655 16654 16663 1 180.0000771 15.1670000 2
16657 16655 16654 16663 1 180.0000771 15.1670000 2
16654 16655 16657 16658 1 180.0000771 15.1670000 2
16654 16655 16657 16659 1 180.0000771 15.1670000 2
16656 16655 16657 16658 1 180.0000771 15.1670000 2
16656 16655 16657 16659 1 180.0000771 15.1670000 2
16655 16657 16659 16660 1 180.0000771 15.1670000 2
16655 16657 16659 16661 1 180.0000771 15.1670000 2
16658 16657 16659 16660 1 180.0000771 15.1670000 2
16658 16657 16659 16661 1 180.0000771 15.1670000 2
16655 16659 16657 16658 4 180.0000771 4.6024000 2
16657 16659 16661 16662 1 180.0000771 15.1670000 2
16657 16659 16661 16663 1 180.0000771 15.1670000 2
16660 16659 16661 16662 1 180.0000771 15.1670000 2
16660 16659 16661 16663 1 180.0000771 15.1670000 2
16657 16661 16659 16660 4 180.0000771 4.6024000 2
16654 16661 16663 16664 4 180.0000771 4.6024000 2
16659 16661 16663 16664 1 180.0000771 15.1670000 2
16662 16661 16663 16664 1 180.0000771 15.1670000 2
16654 16663 16661 16659 1 180.0000771 15.1670000 2
16654 16663 16661 16662 1 180.0000771 15.1670000 2
16659 16663 16661 16662 4 180.0000771 4.6024000 2
16667 16668 16669 16670 1 180.0000771 15.1670000 2
16667 16668 16669 16671 1 180.0000771 15.1670000 2
16670 16668 16669 16671 4 180.0000771 4.6024000 2
16667 16668 16677 16669 4 180.0000771 4.6024000 2
16667 16668 16677 16675 1 180.0000771 15.1670000 2
16667 16668 16677 16678 1 180.0000771 15.1670000 2
16669 16668 16677 16675 1 180.0000771 15.1670000 2
16669 16668 16677 16678 1 180.0000771 15.1670000 2
16670 16669 16668 16677 1 180.0000771 15.1670000 2
16671 16669 16668 16677 1 180.0000771 15.1670000 2
16668 16669 16671 16672 1 180.0000771 15.1670000 2
16668 16669 16671 16673 1 180.0000771 15.1670000 2
16670 16669 16671 16672 1 180.0000771 15.1670000 2
16670 16669 16671 16673 1 180.0000771 15.1670000 2
16669 16671 16673 16674 1 180.0000771 15.1670000 2
16669 16671 16673 16675 1 180.0000771 15.1670000 2
16672 16671 16673 16674 1 180.0000771 15.1670000 2
16672 16671 16673 16675 1 180.0000771 15.1670000 2
16669 16673 16671 16672 4 180.0000771 4.6024000 2
16671 16673 16675 16676 1 180.0000771 15.1670000 2
16671 16673 16675 16677 1 180.0000771 15.1670000 2
16674 16673 16675 16676 1 180.0000771 15.1670000 2
16674 16673 16675 16677 1 180.0000771 15.1670000 2
16671 16675 16673 16674 4 180.0000771 4.6024000 2
16668 16675 16677 16678 4 180.0000771 4.6024000 2
16673 16675 16677 16678 1 180.0000771 15.1670000 2
16676 16675 16677 16678 1 180.0000771 15.1670000 2
16668 16677 16675 16673 1 180.0000771 15.1670000 2
16668 16677 16675 16676 1 180.0000771 15.1670000 2
16673 16677 16675 16676 4 180.0000771 4.6024000 2
16681 16682 16683 16684 1 180.0000771 15.1670000 2
16681 16682 16683 16685 1 180.0000771 15.1670000 2
16684 16682 16683 16685 4 180.0000771 4.6024000 2
16681 16682 16691 16683 4 180.0000771 4.6024000 2
16681 16682 16691 16689 1 180.0000771 15.1670000 2
16681 16682 16691 16692 1 180.0000771 15.1670000 2
16683 16682 16691 16689 1 180.0000771 15.1670000 2
16683 16682 16691 16692 1 180.0000771 15.1670000 2
16684 16683 16682 16691 1 180.0000771 15.1670000 2
16685 16683 16682 16691 1 180.0000771 15.1670000 2
16682 16683 16685 16686 1 180.0000771 15.1670000 2
16682 16683 16685 16687 1 180.0000771 15.1670000 2
16684 16683 16685 16686 1 180.0000771 15.1670000 2
16684 16683 16685 16687 1 180.0000771 15.1670000 2
16683 16685 16687 16688 1 180.0000771 15.1670000 2
16683 16685 16687 16689 1 180.0000771 15.1670000 2
16686 16685 16687 16688 1 180.0000771 15.1670000 2
16686 16685 16687 16689 1 180.0000771 15.1670000 2
16683 16687 16685 16686 4 180.0000771 4.6024000 2
16685 16687 16689 16690 1 180.0000771 15.1670000 2
16685 16687 16689 16691 1 180.0000771 15.1670000 2
16688 16687 16689 16690 1 180.0000771 15.1670000 2
16688 16687 16689 16691 1 180.0000771 15.1670000 2
16685 16689 16687 16688 4 180.0000771 4.6024000 2
16682 16689 16691 16692 4 180.0000771 4.6024000 2
16687 16689 16691 16692 1 180.0000771 15.1670000 2
16690 16689 16691 16692 1 180.0000771 15.1670000 2
16682 16691 16689 16687 1 180.0000771 15.1670000 2
16682 16691 16689 16690 1 180.0000771 15.1670000 2
16687 16691 16689 16690 4 180.0000771 4.6024000 2
16695 16696 16697 16698 1 180.0000771 15.1670000 2
16695 16696 16697 16699 1 180.0000771 15.1670000 2
16698 16696 16697 16699 4 180.0000771 4.6024000 2
16695 16696 16705 16697 4 180.0000771 4.6024000 2
16695 16696 16705 16703 1 180.0000771 15.1670000 2
16695 16696 16705 16706 1 180.0000771 15.1670000 2
16697 16696 16705 16703 1 180.0000771 15.1670000 2
16697 16696 16705 16706 1 180.0000771 15.1670000 2
16698 16697 16696 16705 1 180.0000771 15.1670000 2
16699 16697 16696 16705 1 180.0000771 15.1670000 2
16696 16697 16699 16700 1 180.0000771 15.1670000 2
16696 16697 16699 16701 1 180.0000771 15.1670000 2
16698 16697 16699 16700 1 180.0000771 15.1670000 2
16698 16697 16699 16701 1 180.0000771 15.1670000 2
16697 16699 16701 16702 1 180.0000771 15.1670000 2
16697 16699 16701 16703 1 180.0000771 15.1670000 2
16700 16699 16701 16702 1 180.0000771 15.1670000 2
16700 16699 16701 16703 1 180.0000771 15.1670000 2
16697 16701 16699 16700 4 180.0000771 4.6024000 2
16699 16701 16703 16704 1 180.0000771 15.1670000 2
16699 16701 16703 16705 1 180.0000771 15.1670000 2
16702 16701 16703 16704 1 180.0000771 15.1670000 2
16702 16701 16703 16705 1 180.0000771 15.1670000 2
16699 16703 16701 16702 4 180.0000771 4.6024000 2
16696 16703 16705 16706 4 180.0000771 4.6024000 2
16701 16703 16705 16706 1 180.0000771 15.1670000 2
16704 16703 16705 16706 1 180.0000771 15.1670000 2
16696 16705 16703 16701 1 180.0000771 15.1670000 2
16696 16705 16703 16704 1 180.0000771 15.1670000 2
16701 16705 16703 16704 4 180.0000771 4.6024000 2
16709 16710 16711 16712 1 180.0000771 15.1670000 2
16709 16710 16711 16713 1 180.0000771 15.1670000 2
16712 16710 16711 16713 4 180.0000771 4.6024000 2
16709 16710 16719 16711 4 180.0000771 4.6024000 2
16709 16710 16719 16717 1 180.0000771 15.1670000 2
16709 16710 16719 16720 1 180.0000771 15.1670000 2
16711 16710 16719 16717 1 180.0000771 15.1670000 2
16711 16710 16719 16720 1 180.0000771 15.1670000 2
16712 16711 16710 16719 1 180.0000771 15.1670000 2
16713 16711 16710 16719 1 180.0000771 15.1670000 2
16710 16711 16713 16714 1 180.0000771 15.1670000 2
16710 16711 16713 16715 1 180.0000771 15.1670000 2
16712 16711 16713 16714 1 180.0000771 15.1670000 2
16712 16711 16713 16715 1 180.0000771 15.1670000 2
16711 16713 16715 16716 1 180.0000771 15.1670000 2
16711 16713 16715 16717 1 180.0000771 15.1670000 2
16714 16713 16715 16716 1 180.0000771 15.1670000 2
16714 16713 16715 16717 1 180.0000771 15.1670000 2
16711 16715 16713 16714 4 180.0000771 4.6024000 2
16713 16715 16717 16718 1 180.0000771 15.1670000 2
16713 16715 16717 16719 1 180.0000771 15.1670000 2
16716 16715 16717 16718 1 180.0000771 15.1670000 2
16716 16715 16717 16719 1 180.0000771 15.1670000 2
16713 16717 16715 16716 4 180.0000771 4.6024000 2
16710 16717 16719 16720 4 180.0000771 4.6024000 2
16715 16717 16719 16720 1 180.0000771 15.1670000 2
16718 16717 16719 16720 1 180.0000771 15.1670000 2
16710 16719 16717 16715 1 180.0000771 15.1670000 2
16710 16719 16717 16718 1 180.0000771 15.1670000 2
16715 16719 16717 16718 4 180.0000771 4.6024000 2
16723 16724 16725 16726 1 180.0000771 15.1670000 2
16723 16724 16725 16727 1 180.0000771 15.1670000 2
16726 16724 16725 16727 4 180.0000771 4.6024000 2
16723 16724 16733 16725 4 180.0000771 4.6024000 2
16723 16724 16733 16731 1 180.0000771 15.1670000 2
16723 16724 16733 16734 1 180.0000771 15.1670000 2
16725 16724 16733 16731 1 180.0000771 15.1670000 2
16725 16724 16733 16734 1 180.0000771 15.1670000 2
16726 16725 16724 16733 1 180.0000771 15.1670000 2
16727 16725 16724 16733 1 180.0000771 15.1670000 2
16724 16725 16727 16728 1 180.0000771 15.1670000 2
16724 16725 16727 16729 1 180.0000771 15.1670000 2
16726 16725 16727 16728 1 180.0000771 15.1670000 2
16726 16725 16727 16729 1 180.0000771 15.1670000 2
16725 16727 16729 16730 1 180.0000771 15.1670000 2
16725 16727 16729 16731 1 180.0000771 15.1670000 2
16728 16727 16729 16730 1 180.0000771 15.1670000 2
16728 16727 16729 16731 1 180.0000771 15.1670000 2
16725 16729 16727 16728 4 180.0000771 4.6024000 2
16727 16729 16731 16732 1 180.0000771 15.1670000 2
16727 16729 16731 16733 1 180.0000771 15.1670000 2
16730 16729 16731 16732 1 180.0000771 15.1670000 2
16730 16729 16731 16733 1 180.0000771 15.1670000 2
16727 16731 16729 16730 4 180.0000771 4.6024000 2
16724 16731 16733 16734 4 180.0000771 4.6024000 2
16729 16731 16733 16734 1 180.0000771 15.1670000 2
16732 16731 16733 16734 1 180.0000771 15.1670000 2
16724 16733 16731 16729 1 180.0000771 15.1670000 2
16724 16733 16731 16732 1 180.0000771 15.1670000 2
16729 16733 16731 16732 4 180.0000771 4.6024000 2
16737 16738 16739 16740 1 180.0000771 15.1670000 2
16737 16738 16739 16741 1 180.0000771 15.1670000 2
16740 16738 16739 16741 4 180.0000771 4.6024000 2
16737 16738 16747 16739 4 180.0000771 4.6024000 2
16737 16738 16747 16745 1 180.0000771 15.1670000 2
16737 16738 16747 16748 1 180.0000771 15.1670000 2
16739 16738 16747 16745 1 180.0000771 15.1670000 2
16739 16738 16747 16748 1 180.0000771 15.1670000 2
16740 16739 16738 16747 1 180.0000771 15.1670000 2
16741 16739 16738 16747 1 180.0000771 15.1670000 2
16738 16739 16741 16742 1 180.0000771 15.1670000 2
16738 16739 16741 16743 1 180.0000771 15.1670000 2
16740 16739 16741 16742 1 180.0000771 15.1670000 2
16740 16739 16741 16743 1 180.0000771 15.1670000 2
16739 16741 16743 16744 1 180.0000771 15.1670000 2
16739 16741 16743 16745 1 180.0000771 15.1670000 2
16742 16741 16743 16744 1 180.0000771 15.1670000 2
16742 16741 16743 16745 1 180.0000771 15.1670000 2
16739 16743 16741 16742 4 180.0000771 4.6024000 2
16741 16743 16745 16746 1 180.0000771 15.1670000 2
16741 16743 16745 16747 1 180.0000771 15.1670000 2
16744 16743 16745 16746 1 180.0000771 15.1670000 2
16744 16743 16745 16747 1 180.0000771 15.1670000 2
16741 16745 16743 16744 4 180.0000771 4.6024000 2
16738 16745 16747 16748 4 180.0000771 4.6024000 2
16743 16745 16747 16748 1 180.0000771 15.1670000 2
16746 16745 16747 16748 1 180.0000771 15.1670000 2
16738 16747 16745 16743 1 180.0000771 15.1670000 2
16738 16747 16745 16746 1 180.0000771 15.1670000 2
16743 16747 16745 16746 4 180.0000771 4.6024000 2
16751 16752 16753 16754 1 180.0000771 15.1670000 2
16751 16752 16753 16755 1 180.0000771 15.1670000 2
16754 16752 16753 16755 4 180.0000771 4.6024000 2
16751 16752 16761 16753 4 180.0000771 4.6024000 2
16751 16752 16761 16759 1 180.0000771 15.1670000 2
16751 16752 16761 16762 1 180.0000771 15.1670000 2
16753 16752 16761 16759 1 180.0000771 15.1670000 2
16753 16752 16761 16762 1 180.0000771 15.1670000 2
16754 16753 16752 16761 1 180.0000771 15.1670000 2
16755 16753 16752 16761 1 180.0000771 15.1670000 2
16752 16753 16755 16756 1 180.0000771 15.1670000 2
16752 16753 16755 16757 1 180.0000771 15.1670000 2
16754 16753 16755 16756 1 180.0000771 15.1670000 2
16754 16753 16755 16757 1 180.0000771 15.1670000 2
16753 16755 16757 16758 1 180.0000771 15.1670000 2
16753 16755 16757 16759 1 180.0000771 15.1670000 2
16756 16755 16757 16758 1 180.0000771 15.1670000 2
16756 16755 16757 16759 1 180.0000771 15.1670000 2
16753 16757 16755 16756 4 180.0000771 4.6024000 2
16755 16757 16759 16760 1 180.0000771 15.1670000 2
16755 16757 16759 16761 1 180.0000771 15.1670000 2
16758 16757 16759 16760 1 180.0000771 15.1670000 2
16758 16757 16759 16761 1 180.0000771 15.1670000 2
16755 16759 16757 16758 4 180.0000771 4.6024000 2
16752 16759 16761 16762 4 180.0000771 4.6024000 2
16757 16759 16761 16762 1 180.0000771 15.1670000 2
16760 16759 16761 16762 1 180.0000771 15.1670000 2
16752 16761 16759 16757 1 180.0000771 15.1670000 2
16752 16761 16759 16760 1 180.0000771 15.1670000 2
16757 16761 16759 16760 4 180.0000771 4.6024000 2
16765 16766 16767 16768 1 180.0000771 15.1670000 2
16765 16766 16767 16769 1 180.0000771 15.1670000 2
16768 16766 16767 16769 4 180.0000771 4.6024000 2
16765 16766 16775 16767 4 180.0000771 4.6024000 2
16765 16766 16775 16773 1 180.0000771 15.1670000 2
16765 16766 16775 16776 1 180.0000771 15.1670000 2
16767 16766 16775 16773 1 180.0000771 15.1670000 2
16767 16766 16775 16776 1 180.0000771 15.1670000 2
16768 16767 16766 16775 1 180.0000771 15.1670000 2
16769 16767 16766 16775 1 180.0000771 15.1670000 2
16766 16767 16769 16770 1 180.0000771 15.1670000 2
16766 16767 16769 16771 1 180.0000771 15.1670000 2
16768 16767 16769 16770 1 180.0000771 15.1670000 2
16768 16767 16769 16771 1 180.0000771 15.1670000 2
16767 16769 16771 16772 1 180.0000771 15.1670000 2
16767 16769 16771 16773 1 180.0000771 15.1670000 2
16770 16769 16771 16772 1 180.0000771 15.1670000 2
16770 16769 16771 16773 1 180.0000771 15.1670000 2
16767 16771 16769 16770 4 180.0000771 4.6024000 2
16769 16771 16773 16774 1 180.0000771 15.1670000 2
16769 16771 16773 16775 1 180.0000771 15.1670000 2
16772 16771 16773 16774 1 180.0000771 15.1670000 2
16772 16771 16773 16775 1 180.0000771 15.1670000 2
16769 16773 16771 16772 4 180.0000771 4.6024000 2
16766 16773 16775 16776 4 180.0000771 4.6024000 2
16771 16773 16775 16776 1 180.0000771 15.1670000 2
16774 16773 16775 16776 1 180.0000771 15.1670000 2
16766 16775 16773 16771 1 180.0000771 15.1670000 2
16766 16775 16773 16774 1 180.0000771 15.1670000 2
16771 16775 16773 16774 4 180.0000771 4.6024000 2
16779 16780 16781 16782 1 180.0000771 15.1670000 2
16779 16780 16781 16783 1 180.0000771 15.1670000 2
16782 16780 16781 16783 4 180.0000771 4.6024000 2
16779 16780 16789 16781 4 180.0000771 4.6024000 2
16779 16780 16789 16787 1 180.0000771 15.1670000 2
16779 16780 16789 16790 1 180.0000771 15.1670000 2
16781 16780 16789 16787 1 180.0000771 15.1670000 2
16781 16780 16789 16790 1 180.0000771 15.1670000 2
16782 16781 16780 16789 1 180.0000771 15.1670000 2
16783 16781 16780 16789 1 180.0000771 15.1670000 2
16780 16781 16783 16784 1 180.0000771 15.1670000 2
16780 16781 16783 16785 1 180.0000771 15.1670000 2
16782 16781 16783 16784 1 180.0000771 15.1670000 2
16782 16781 16783 16785 1 180.0000771 15.1670000 2
16781 16783 16785 16786 1 180.0000771 15.1670000 2
16781 16783 16785 16787 1 180.0000771 15.1670000 2
16784 16783 16785 16786 1 180.0000771 15.1670000 2
16784 16783 16785 16787 1 180.0000771 15.1670000 2
16781 16785 16783 16784 4 180.0000771 4.6024000 2
16783 16785 16787 16788 1 180.0000771 15.1670000 2
16783 16785 16787 16789 1 180.0000771 15.1670000 2
16786 16785 16787 16788 1 180.0000771 15.1670000 2
16786 16785 16787 16789 1 180.0000771 15.1670000 2
16783 16787 16785 16786 4 180.0000771 4.6024000 2
16780 16787 16789 16790 4 180.0000771 4.6024000 2
16785 16787 16789 16790 1 180.0000771 15.1670000 2
16788 16787 16789 16790 1 180.0000771 15.1670000 2
16780 16789 16787 16785 1 180.0000771 15.1670000 2
16780 16789 16787 16788 1 180.0000771 15.1670000 2
16785 16789 16787 16788 4 180.0000771 4.6024000 2
16793 16794 16795 16796 1 180.0000771 15.1670000 2
16793 16794 16795 16797 1 180.0000771 15.1670000 2
16796 16794 16795 16797 4 180.0000771 4.6024000 2
16793 16794 16803 16795 4 180.0000771 4.6024000 2
16793 16794 16803 16801 1 180.0000771 15.1670000 2
16793 16794 16803 16804 1 180.0000771 15.1670000 2
16795 16794 16803 16801 1 180.0000771 15.1670000 2
16795 16794 16803 16804 1 180.0000771 15.1670000 2
16796 16795 16794 16803 1 180.0000771 15.1670000 2
16797 16795 16794 16803 1 180.0000771 15.1670000 2
16794 16795 16797 16798 1 180.0000771 15.1670000 2
16794 16795 16797 16799 1 180.0000771 15.1670000 2
16796 16795 16797 16798 1 180.0000771 15.1670000 2
16796 16795 16797 16799 1 180.0000771 15.1670000 2
16795 16797 16799 16800 1 180.0000771 15.1670000 2
16795 16797 16799 16801 1 180.0000771 15.1670000 2
16798 16797 16799 16800 1 180.0000771 15.1670000 2
16798 16797 16799 16801 1 180.0000771 15.1670000 2
16795 16799 16797 16798 4 180.0000771 4.6024000 2
16797 16799 16801 16802 1 180.0000771 15.1670000 2
16797 16799 16801 16803 1 180.0000771 15.1670000 2
16800 16799 16801 16802 1 180.0000771 15.1670000 2
16800 16799 16801 16803 1 180.0000771 15.1670000 2
16797 16801 16799 16800 4 180.0000771 4.6024000 2
16794 16801 16803 16804 4 180.0000771 4.6024000 2
16799 16801 16803 16804 1 180.0000771 15.1670000 2
16802 16801 16803 16804 1 180.0000771 15.1670000 2
16794 16803 16801 16799 1 180.0000771 15.1670000 2
16794 16803 16801 16802 1 180.0000771 15.1670000 2
16799 16803 16801 16802 4 180.0000771 4.6024000 2
16807 16808 16809 16810 1 180.0000771 15.1670000 2
16807 16808 16809 16811 1 180.0000771 15.1670000 2
16810 16808 16809 16811 4 180.0000771 4.6024000 2
16807 16808 16817 16809 4 180.0000771 4.6024000 2
16807 16808 16817 16815 1 180.0000771 15.1670000 2
16807 16808 16817 16818 1 180.0000771 15.1670000 2
16809 16808 16817 16815 1 180.0000771 15.1670000 2
16809 16808 16817 16818 1 180.0000771 15.1670000 2
16810 16809 16808 16817 1 180.0000771 15.1670000 2
16811 16809 16808 16817 1 180.0000771 15.1670000 2
16808 16809 16811 16812 1 180.0000771 15.1670000 2
16808 16809 16811 16813 1 180.0000771 15.1670000 2
16810 16809 16811 16812 1 180.0000771 15.1670000 2
16810 16809 16811 16813 1 180.0000771 15.1670000 2
16809 16811 16813 16814 1 180.0000771 15.1670000 2
16809 16811 16813 16815 1 180.0000771 15.1670000 2
16812 16811 16813 16814 1 180.0000771 15.1670000 2
16812 16811 16813 16815 1 180.0000771 15.1670000 2
16809 16813 16811 16812 4 180.0000771 4.6024000 2
16811 16813 16815 16816 1 180.0000771 15.1670000 2
16811 16813 16815 16817 1 180.0000771 15.1670000 2
16814 16813 16815 16816 1 180.0000771 15.1670000 2
16814 16813 16815 16817 1 180.0000771 15.1670000 2
16811 16815 16813 16814 4 180.0000771 4.6024000 2
16808 16815 16817 16818 4 180.0000771 4.6024000 2
16813 16815 16817 16818 1 180.0000771 15.1670000 2
16816 16815 16817 16818 1 180.0000771 15.1670000 2
16808 16817 16815 16813 1 180.0000771 15.1670000 2
16808 16817 16815 16816 1 180.0000771 15.1670000 2
16813 16817 16815 16816 4 180.0000771 4.6024000 2
16821 16822 16823 16824 1 180.0000771 15.1670000 2
16821 16822 16823 16825 1 180.0000771 15.1670000 2
16824 16822 16823 16825 4 180.0000771 4.6024000 2
16821 16822 16831 16823 4 180.0000771 4.6024000 2
16821 16822 16831 16829 1 180.0000771 15.1670000 2
16821 16822 16831 16832 1 180.0000771 15.1670000 2
16823 16822 16831 16829 1 180.0000771 15.1670000 2
16823 16822 16831 16832 1 180.0000771 15.1670000 2
16824 16823 16822 16831 1 180.0000771 15.1670000 2
16825 16823 16822 16831 1 180.0000771 15.1670000 2
16822 16823 16825 16826 1 180.0000771 15.1670000 2
16822 16823 16825 16827 1 180.0000771 15.1670000 2
16824 16823 16825 16826 1 180.0000771 15.1670000 2
16824 16823 16825 16827 1 180.0000771 15.1670000 2
16823 16825 16827 16828 1 180.0000771 15.1670000 2
16823 16825 16827 16829 1 180.0000771 15.1670000 2
16826 16825 16827 16828 1 180.0000771 15.1670000 2
16826 16825 16827 16829 1 180.0000771 15.1670000 2
16823 16827 16825 16826 4 180.0000771 4.6024000 2
16825 16827 16829 16830 1 180.0000771 15.1670000 2
16825 16827 16829 16831 1 180.0000771 15.1670000 2
16828 16827 16829 16830 1 180.0000771 15.1670000 2
16828 16827 16829 16831 1 180.0000771 15.1670000 2
16825 16829 16827 16828 4 180.0000771 4.6024000 2
16822 16829 16831 16832 4 180.0000771 4.6024000 2
16827 16829 16831 16832 1 180.0000771 15.1670000 2
16830 16829 16831 16832 1 180.0000771 15.1670000 2
16822 16831 16829 16827 1 180.0000771 15.1670000 2
16822 16831 16829 16830 1 180.0000771 15.1670000 2
16827 16831 16829 16830 4 180.0000771 4.6024000 2
16835 16836 16837 16838 1 180.0000771 15.1670000 2
16835 16836 16837 16839 1 180.0000771 15.1670000 2
16838 16836 16837 16839 4 180.0000771 4.6024000 2
16835 16836 16845 16837 4 180.0000771 4.6024000 2
16835 16836 16845 16843 1 180.0000771 15.1670000 2
16835 16836 16845 16846 1 180.0000771 15.1670000 2
16837 16836 16845 16843 1 180.0000771 15.1670000 2
16837 16836 16845 16846 1 180.0000771 15.1670000 2
16838 16837 16836 16845 1 180.0000771 15.1670000 2
16839 16837 16836 16845 1 180.0000771 15.1670000 2
16836 16837 16839 16840 1 180.0000771 15.1670000 2
16836 16837 16839 16841 1 180.0000771 15.1670000 2
16838 16837 16839 16840 1 180.0000771 15.1670000 2
16838 16837 16839 16841 1 180.0000771 15.1670000 2
16837 16839 16841 16842 1 180.0000771 15.1670000 2
16837 16839 16841 16843 1 180.0000771 15.1670000 2
16840 16839 16841 16842 1 180.0000771 15.1670000 2
16840 16839 16841 16843 1 180.0000771 15.1670000 2
16837 16841 16839 16840 4 180.0000771 4.6024000 2
16839 16841 16843 16844 1 180.0000771 15.1670000 2
16839 16841 16843 16845 1 180.0000771 15.1670000 2
16842 16841 16843 16844 1 180.0000771 15.1670000 2
16842 16841 16843 16845 1 180.0000771 15.1670000 2
16839 16843 16841 16842 4 180.0000771 4.6024000 2
16836 16843 16845 16846 4 180.0000771 4.6024000 2
16841 16843 16845 16846 1 180.0000771 15.1670000 2
16844 16843 16845 16846 1 180.0000771 15.1670000 2
16836 16845 16843 16841 1 180.0000771 15.1670000 2
16836 16845 16843 16844 1 180.0000771 15.1670000 2
16841 16845 16843 16844 4 180.0000771 4.6024000 2
16849 16850 16851 16852 1 180.0000771 15.1670000 2
16849 16850 16851 16853 1 180.0000771 15.1670000 2
16852 16850 16851 16853 4 180.0000771 4.6024000 2
16849 16850 16859 16851 4 180.0000771 4.6024000 2
16849 16850 16859 16857 1 180.0000771 15.1670000 2
16849 16850 16859 16860 1 180.0000771 15.1670000 2
16851 16850 16859 16857 1 180.0000771 15.1670000 2
16851 16850 16859 16860 1 180.0000771 15.1670000 2
16852 16851 16850 16859 1 180.0000771 15.1670000 2
16853 16851 16850 16859 1 180.0000771 15.1670000 2
16850 16851 16853 16854 1 180.0000771 15.1670000 2
16850 16851 16853 16855 1 180.0000771 15.1670000 2
16852 16851 16853 16854 1 180.0000771 15.1670000 2
16852 16851 16853 16855 1 180.0000771 15.1670000 2
16851 16853 16855 16856 1 180.0000771 15.1670000 2
16851 16853 16855 16857 1 180.0000771 15.1670000 2
16854 16853 16855 16856 1 180.0000771 15.1670000 2
16854 16853 16855 16857 1 180.0000771 15.1670000 2
16851 16855 16853 16854 4 180.0000771 4.6024000 2
16853 16855 16857 16858 1 180.0000771 15.1670000 2
16853 16855 16857 16859 1 180.0000771 15.1670000 2
16856 16855 16857 16858 1 180.0000771 15.1670000 2
16856 16855 16857 16859 1 180.0000771 15.1670000 2
16853 16857 16855 16856 4 180.0000771 4.6024000 2
16850 16857 16859 16860 4 180.0000771 4.6024000 2
16855 16857 16859 16860 1 180.0000771 15.1670000 2
16858 16857 16859 16860 1 180.0000771 15.1670000 2
16850 16859 16857 16855 1 180.0000771 15.1670000 2
16850 16859 16857 16858 1 180.0000771 15.1670000 2
16855 16859 16857 16858 4 180.0000771 4.6024000 2
16863 16864 16865 16866 1 180.0000771 15.1670000 2
16863 16864 16865 16867 1 180.0000771 15.1670000 2
16866 16864 16865 16867 4 180.0000771 4.6024000 2
16863 16864 16873 16865 4 180.0000771 4.6024000 2
16863 16864 16873 16871 1 180.0000771 15.1670000 2
16863 16864 16873 16874 1 180.0000771 15.1670000 2
16865 16864 16873 16871 1 180.0000771 15.1670000 2
16865 16864 16873 16874 1 180.0000771 15.1670000 2
16866 16865 16864 16873 1 180.0000771 15.1670000 2
16867 16865 16864 16873 1 180.0000771 15.1670000 2
16864 16865 16867 16868 1 180.0000771 15.1670000 2
16864 16865 16867 16869 1 180.0000771 15.1670000 2
16866 16865 16867 16868 1 180.0000771 15.1670000 2
16866 16865 16867 16869 1 180.0000771 15.1670000 2
16865 16867 16869 16870 1 180.0000771 15.1670000 2
16865 16867 16869 16871 1 180.0000771 15.1670000 2
16868 16867 16869 16870 1 180.0000771 15.1670000 2
16868 16867 16869 16871 1 180.0000771 15.1670000 2
16865 16869 16867 16868 4 180.0000771 4.6024000 2
16867 16869 16871 16872 1 180.0000771 15.1670000 2
16867 16869 16871 16873 1 180.0000771 15.1670000 2
16870 16869 16871 16872 1 180.0000771 15.1670000 2
16870 16869 16871 16873 1 180.0000771 15.1670000 2
16867 16871 16869 16870 4 180.0000771 4.6024000 2
16864 16871 16873 16874 4 180.0000771 4.6024000 2
16869 16871 16873 16874 1 180.0000771 15.1670000 2
16872 16871 16873 16874 1 180.0000771 15.1670000 2
16864 16873 16871 16869 1 180.0000771 15.1670000 2
16864 16873 16871 16872 1 180.0000771 15.1670000 2
16869 16873 16871 16872 4 180.0000771 4.6024000 2
16877 16878 16879 16880 1 180.0000771 15.1670000 2
16877 16878 16879 16881 1 180.0000771 15.1670000 2
16880 16878 16879 16881 4 180.0000771 4.6024000 2
16877 16878 16887 16879 4 180.0000771 4.6024000 2
16877 16878 16887 16885 1 180.0000771 15.1670000 2
16877 16878 16887 16888 1 180.0000771 15.1670000 2
16879 16878 16887 16885 1 180.0000771 15.1670000 2
16879 16878 16887 16888 1 180.0000771 15.1670000 2
16880 16879 16878 16887 1 180.0000771 15.1670000 2
16881 16879 16878 16887 1 180.0000771 15.1670000 2
16878 16879 16881 16882 1 180.0000771 15.1670000 2
16878 16879 16881 16883 1 180.0000771 15.1670000 2
16880 16879 16881 16882 1 180.0000771 15.1670000 2
16880 16879 16881 16883 1 180.0000771 15.1670000 2
16879 16881 16883 16884 1 180.0000771 15.1670000 2
16879 16881 16883 16885 1 180.0000771 15.1670000 2
16882 16881 16883 16884 1 180.0000771 15.1670000 2
16882 16881 16883 16885 1 180.0000771 15.1670000 2
16879 16883 16881 16882 4 180.0000771 4.6024000 2
16881 16883 16885 16886 1 180.0000771 15.1670000 2
16881 16883 16885 16887 1 180.0000771 15.1670000 2
16884 16883 16885 16886 1 180.0000771 15.1670000 2
16884 16883 16885 16887 1 180.0000771 15.1670000 2
16881 16885 16883 16884 4 180.0000771 4.6024000 2
16878 16885 16887 16888 4 180.0000771 4.6024000 2
16883 16885 16887 16888 1 180.0000771 15.1670000 2
16886 16885 16887 16888 1 180.0000771 15.1670000 2
16878 16887 16885 16883 1 180.0000771 15.1670000 2
16878 16887 16885 16886 1 180.0000771 15.1670000 2
16883 16887 16885 16886 4 180.0000771 4.6024000 2
16891 16892 16893 16894 1 180.0000771 15.1670000 2
16891 16892 16893 16895 1 180.0000771 15.1670000 2
16894 16892 16893 16895 4 180.0000771 4.6024000 2
16891 16892 16901 16893 4 180.0000771 4.6024000 2
16891 16892 16901 16899 1 180.0000771 15.1670000 2
16891 16892 16901 16902 1 180.0000771 15.1670000 2
16893 16892 16901 16899 1 180.0000771 15.1670000 2
16893 16892 16901 16902 1 180.0000771 15.1670000 2
16894 16893 16892 16901 1 180.0000771 15.1670000 2
16895 16893 16892 16901 1 180.0000771 15.1670000 2
16892 16893 16895 16896 1 180.0000771 15.1670000 2
16892 16893 16895 16897 1 180.0000771 15.1670000 2
16894 16893 16895 16896 1 180.0000771 15.1670000 2
16894 16893 16895 16897 1 180.0000771 15.1670000 2
16893 16895 16897 16898 1 180.0000771 15.1670000 2
16893 16895 16897 16899 1 180.0000771 15.1670000 2
16896 16895 16897 16898 1 180.0000771 15.1670000 2
16896 16895 16897 16899 1 180.0000771 15.1670000 2
16893 16897 16895 16896 4 180.0000771 4.6024000 2
16895 16897 16899 16900 1 180.0000771 15.1670000 2
16895 16897 16899 16901 1 180.0000771 15.1670000 2
16898 16897 16899 16900 1 180.0000771 15.1670000 2
16898 16897 16899 16901 1 180.0000771 15.1670000 2
16895 16899 16897 16898 4 180.0000771 4.6024000 2
16892 16899 16901 16902 4 180.0000771 4.6024000 2
16897 16899 16901 16902 1 180.0000771 15.1670000 2
16900 16899 16901 16902 1 180.0000771 15.1670000 2
16892 16901 16899 16897 1 180.0000771 15.1670000 2
16892 16901 16899 16900 1 180.0000771 15.1670000 2
16897 16901 16899 16900 4 180.0000771 4.6024000 2
16905 16906 16907 16908 1 180.0000771 15.1670000 2
16905 16906 16907 16909 1 180.0000771 15.1670000 2
16908 16906 16907 16909 4 180.0000771 4.6024000 2
16905 16906 16915 16907 4 180.0000771 4.6024000 2
16905 16906 16915 16913 1 180.0000771 15.1670000 2
16905 16906 16915 16916 1 180.0000771 15.1670000 2
16907 16906 16915 16913 1 180.0000771 15.1670000 2
16907 16906 16915 16916 1 180.0000771 15.1670000 2
16908 16907 16906 16915 1 180.0000771 15.1670000 2
16909 16907 16906 16915 1 180.0000771 15.1670000 2
16906 16907 16909 16910 1 180.0000771 15.1670000 2
16906 16907 16909 16911 1 180.0000771 15.1670000 2
16908 16907 16909 16910 1 180.0000771 15.1670000 2
16908 16907 16909 16911 1 180.0000771 15.1670000 2
16907 16909 16911 16912 1 180.0000771 15.1670000 2
16907 16909 16911 16913 1 180.0000771 15.1670000 2
16910 16909 16911 16912 1 180.0000771 15.1670000 2
16910 16909 16911 16913 1 180.0000771 15.1670000 2
16907 16911 16909 16910 4 180.0000771 4.6024000 2
16909 16911 16913 16914 1 180.0000771 15.1670000 2
16909 16911 16913 16915 1 180.0000771 15.1670000 2
16912 16911 16913 16914 1 180.0000771 15.1670000 2
16912 16911 16913 16915 1 180.0000771 15.1670000 2
16909 16913 16911 16912 4 180.0000771 4.6024000 2
16906 16913 16915 16916 4 180.0000771 4.6024000 2
16911 16913 16915 16916 1 180.0000771 15.1670000 2
16914 16913 16915 16916 1 180.0000771 15.1670000 2
16906 16915 16913 16911 1 180.0000771 15.1670000 2
16906 16915 16913 16914 1 180.0000771 15.1670000 2
16911 16915 16913 16914 4 180.0000771 4.6024000 2
16919 16920 16921 16922 1 180.0000771 15.1670000 2
16919 16920 16921 16923 1 180.0000771 15.1670000 2
16922 16920 16921 16923 4 180.0000771 4.6024000 2
16919 16920 16929 16921 4 180.0000771 4.6024000 2
16919 16920 16929 16927 1 180.0000771 15.1670000 2
16919 16920 16929 16930 1 180.0000771 15.1670000 2
16921 16920 16929 16927 1 180.0000771 15.1670000 2
16921 16920 16929 16930 1 180.0000771 15.1670000 2
16922 16921 16920 16929 1 180.0000771 15.1670000 2
16923 16921 16920 16929 1 180.0000771 15.1670000 2
16920 16921 16923 16924 1 180.0000771 15.1670000 2
16920 16921 16923 16925 1 180.0000771 15.1670000 2
16922 16921 16923 16924 1 180.0000771 15.1670000 2
16922 16921 16923 16925 1 180.0000771 15.1670000 2
16921 16923 16925 16926 1 180.0000771 15.1670000 2
16921 16923 16925 16927 1 180.0000771 15.1670000 2
16924 16923 16925 16926 1 180.0000771 15.1670000 2
16924 16923 16925 16927 1 180.0000771 15.1670000 2
16921 16925 16923 16924 4 180.0000771 4.6024000 2
16923 16925 16927 16928 1 180.0000771 15.1670000 2
16923 16925 16927 16929 1 180.0000771 15.1670000 2
16926 16925 16927 16928 1 180.0000771 15.1670000 2
16926 16925 16927 16929 1 180.0000771 15.1670000 2
16923 16927 16925 16926 4 180.0000771 4.6024000 2
16920 16927 16929 16930 4 180.0000771 4.6024000 2
16925 16927 16929 16930 1 180.0000771 15.1670000 2
16928 16927 16929 16930 1 180.0000771 15.1670000 2
16920 16929 16927 16925 1 180.0000771 15.1670000 2
16920 16929 16927 16928 1 180.0000771 15.1670000 2
16925 16929 16927 16928 4 180.0000771 4.6024000 2
16933 16934 16935 16936 1 180.0000771 15.1670000 2
16933 16934 16935 16937 1 180.0000771 15.1670000 2
16936 16934 16935 16937 4 180.0000771 4.6024000 2
16933 16934 16943 16935 4 180.0000771 4.6024000 2
16933 16934 16943 16941 1 180.0000771 15.1670000 2
16933 16934 16943 16944 1 180.0000771 15.1670000 2
16935 16934 16943 16941 1 180.0000771 15.1670000 2
16935 16934 16943 16944 1 180.0000771 15.1670000 2
16936 16935 16934 16943 1 180.0000771 15.1670000 2
16937 16935 16934 16943 1 180.0000771 15.1670000 2
16934 16935 16937 16938 1 180.0000771 15.1670000 2
16934 16935 16937 16939 1 180.0000771 15.1670000 2
16936 16935 16937 16938 1 180.0000771 15.1670000 2
16936 16935 16937 16939 1 180.0000771 15.1670000 2
16935 16937 16939 16940 1 180.0000771 15.1670000 2
16935 16937 16939 16941 1 180.0000771 15.1670000 2
16938 16937 16939 16940 1 180.0000771 15.1670000 2
16938 16937 16939 16941 1 180.0000771 15.1670000 2
16935 16939 16937 16938 4 180.0000771 4.6024000 2
16937 16939 16941 16942 1 180.0000771 15.1670000 2
16937 16939 16941 16943 1 180.0000771 15.1670000 2
16940 16939 16941 16942 1 180.0000771 15.1670000 2
16940 16939 16941 16943 1 180.0000771 15.1670000 2
16937 16941 16939 16940 4 180.0000771 4.6024000 2
16934 16941 16943 16944 4 180.0000771 4.6024000 2
16939 16941 16943 16944 1 180.0000771 15.1670000 2
16942 16941 16943 16944 1 180.0000771 15.1670000 2
16934 16943 16941 16939 1 180.0000771 15.1670000 2
16934 16943 16941 16942 1 180.0000771 15.1670000 2
16939 16943 16941 16942 4 180.0000771 4.6024000 2
16947 16948 16949 16950 1 180.0000771 15.1670000 2
16947 16948 16949 16951 1 180.0000771 15.1670000 2
16950 16948 16949 16951 4 180.0000771 4.6024000 2
16947 16948 16957 16949 4 180.0000771 4.6024000 2
16947 16948 16957 16955 1 180.0000771 15.1670000 2
16947 16948 16957 16958 1 180.0000771 15.1670000 2
16949 16948 16957 16955 1 180.0000771 15.1670000 2
16949 16948 16957 16958 1 180.0000771 15.1670000 2
16950 16949 16948 16957 1 180.0000771 15.1670000 2
16951 16949 16948 16957 1 180.0000771 15.1670000 2
16948 16949 16951 16952 1 180.0000771 15.1670000 2
16948 16949 16951 16953 1 180.0000771 15.1670000 2
16950 16949 16951 16952 1 180.0000771 15.1670000 2
16950 16949 16951 16953 1 180.0000771 15.1670000 2
16949 16951 16953 16954 1 180.0000771 15.1670000 2
16949 16951 16953 16955 1 180.0000771 15.1670000 2
16952 16951 16953 16954 1 180.0000771 15.1670000 2
16952 16951 16953 16955 1 180.0000771 15.1670000 2
16949 16953 16951 16952 4 180.0000771 4.6024000 2
16951 16953 16955 16956 1 180.0000771 15.1670000 2
16951 16953 16955 16957 1 180.0000771 15.1670000 2
16954 16953 16955 16956 1 180.0000771 15.1670000 2
16954 16953 16955 16957 1 180.0000771 15.1670000 2
16951 16955 16953 16954 4 180.0000771 4.6024000 2
16948 16955 16957 16958 4 180.0000771 4.6024000 2
16953 16955 16957 16958 1 180.0000771 15.1670000 2
16956 16955 16957 16958 1 180.0000771 15.1670000 2
16948 16957 16955 16953 1 180.0000771 15.1670000 2
16948 16957 16955 16956 1 180.0000771 15.1670000 2
16953 16957 16955 16956 4 180.0000771 4.6024000 2
16961 16962 16963 16964 1 180.0000771 15.1670000 2
16961 16962 16963 16965 1 180.0000771 15.1670000 2
16964 16962 16963 16965 4 180.0000771 4.6024000 2
16961 16962 16971 16963 4 180.0000771 4.6024000 2
16961 16962 16971 16969 1 180.0000771 15.1670000 2
16961 16962 16971 16972 1 180.0000771 15.1670000 2
16963 16962 16971 16969 1 180.0000771 15.1670000 2
16963 16962 16971 16972 1 180.0000771 15.1670000 2
16964 16963 16962 16971 1 180.0000771 15.1670000 2
16965 16963 16962 16971 1 180.0000771 15.1670000 2
16962 16963 16965 16966 1 180.0000771 15.1670000 2
16962 16963 16965 16967 1 180.0000771 15.1670000 2
16964 16963 16965 16966 1 180.0000771 15.1670000 2
16964 16963 16965 16967 1 180.0000771 15.1670000 2
16963 16965 16967 16968 1 180.0000771 15.1670000 2
16963 16965 16967 16969 1 180.0000771 15.1670000 2
16966 16965 16967 16968 1 180.0000771 15.1670000 2
16966 16965 16967 16969 1 180.0000771 15.1670000 2
16963 16967 16965 16966 4 180.0000771 4.6024000 2
16965 16967 16969 16970 1 180.0000771 15.1670000 2
16965 16967 16969 16971 1 180.0000771 15.1670000 2
16968 16967 16969 16970 1 180.0000771 15.1670000 2
16968 16967 16969 16971 1 180.0000771 15.1670000 2
16965 16969 16967 16968 4 180.0000771 4.6024000 2
16962 16969 16971 16972 4 180.0000771 4.6024000 2
16967 16969 16971 16972 1 180.0000771 15.1670000 2
16970 16969 16971 16972 1 180.0000771 15.1670000 2
16962 16971 16969 16967 1 180.0000771 15.1670000 2
16962 16971 16969 16970 1 180.0000771 15.1670000 2
16967 16971 16969 16970 4 180.0000771 4.6024000 2
16975 16976 16977 16978 1 180.0000771 15.1670000 2
16975 16976 16977 16979 1 180.0000771 15.1670000 2
16978 16976 16977 16979 4 180.0000771 4.6024000 2
16975 16976 16985 16977 4 180.0000771 4.6024000 2
16975 16976 16985 16983 1 180.0000771 15.1670000 2
16975 16976 16985 16986 1 180.0000771 15.1670000 2
16977 16976 16985 16983 1 180.0000771 15.1670000 2
16977 16976 16985 16986 1 180.0000771 15.1670000 2
16978 16977 16976 16985 1 180.0000771 15.1670000 2
16979 16977 16976 16985 1 180.0000771 15.1670000 2
16976 16977 16979 16980 1 180.0000771 15.1670000 2
16976 16977 16979 16981 1 180.0000771 15.1670000 2
16978 16977 16979 16980 1 180.0000771 15.1670000 2
16978 16977 16979 16981 1 180.0000771 15.1670000 2
16977 16979 16981 16982 1 180.0000771 15.1670000 2
16977 16979 16981 16983 1 180.0000771 15.1670000 2
16980 16979 16981 16982 1 180.0000771 15.1670000 2
16980 16979 16981 16983 1 180.0000771 15.1670000 2
16977 16981 16979 16980 4 180.0000771 4.6024000 2
16979 16981 16983 16984 1 180.0000771 15.1670000 2
16979 16981 16983 16985 1 180.0000771 15.1670000 2
16982 16981 16983 16984 1 180.0000771 15.1670000 2
16982 16981 16983 16985 1 180.0000771 15.1670000 2
16979 16983 16981 16982 4 180.0000771 4.6024000 2
16976 16983 16985 16986 4 180.0000771 4.6024000 2
16981 16983 16985 16986 1 180.0000771 15.1670000 2
16984 16983 16985 16986 1 180.0000771 15.1670000 2
16976 16985 16983 16981 1 180.0000771 15.1670000 2
16976 16985 16983 16984 1 180.0000771 15.1670000 2
16981 16985 16983 16984 4 180.0000771 4.6024000 2
16989 16990 16991 16992 1 180.0000771 15.1670000 2
16989 16990 16991 16993 1 180.0000771 15.1670000 2
16992 16990 16991 16993 4 180.0000771 4.6024000 2
16989 16990 16999 16991 4 180.0000771 4.6024000 2
16989 16990 16999 16997 1 180.0000771 15.1670000 2
16989 16990 16999 17000 1 180.0000771 15.1670000 2
16991 16990 16999 16997 1 180.0000771 15.1670000 2
16991 16990 16999 17000 1 180.0000771 15.1670000 2
16992 16991 16990 16999 1 180.0000771 15.1670000 2
16993 16991 16990 16999 1 180.0000771 15.1670000 2
16990 16991 16993 16994 1 180.0000771 15.1670000 2
16990 16991 16993 16995 1 180.0000771 15.1670000 2
16992 16991 16993 16994 1 180.0000771 15.1670000 2
16992 16991 16993 16995 1 180.0000771 15.1670000 2
16991 16993 16995 16996 1 180.0000771 15.1670000 2
16991 16993 16995 16997 1 180.0000771 15.1670000 2
16994 16993 16995 16996 1 180.0000771 15.1670000 2
16994 16993 16995 16997 1 180.0000771 15.1670000 2
16991 16995 16993 16994 4 180.0000771 4.6024000 2
16993 16995 16997 16998 1 180.0000771 15.1670000 2
16993 16995 16997 16999 1 180.0000771 15.1670000 2
16996 16995 16997 16998 1 180.0000771 15.1670000 2
16996 16995 16997 16999 1 180.0000771 15.1670000 2
16993 16997 16995 16996 4 180.0000771 4.6024000 2
16990 16997 16999 17000 4 180.0000771 4.6024000 2
16995 16997 16999 17000 1 180.0000771 15.1670000 2
16998 16997 16999 17000 1 180.0000771 15.1670000 2
16990 16999 16997 16995 1 180.0000771 15.1670000 2
16990 16999 16997 16998 1 180.0000771 15.1670000 2
16995 16999 16997 16998 4 180.0000771 4.6024000 2
17003 17004 17005 17006 1 180.0000771 15.1670000 2
17003 17004 17005 17007 1 180.0000771 15.1670000 2
17006 17004 17005 17007 4 180.0000771 4.6024000 2
17003 17004 17013 17005 4 180.0000771 4.6024000 2
17003 17004 17013 17011 1 180.0000771 15.1670000 2
17003 17004 17013 17014 1 180.0000771 15.1670000 2
17005 17004 17013 17011 1 180.0000771 15.1670000 2
17005 17004 17013 17014 1 180.0000771 15.1670000 2
17006 17005 17004 17013 1 180.0000771 15.1670000 2
17007 17005 17004 17013 1 180.0000771 15.1670000 2
17004 17005 17007 17008 1 180.0000771 15.1670000 2
17004 17005 17007 17009 1 180.0000771 15.1670000 2
17006 17005 17007 17008 1 180.0000771 15.1670000 2
17006 17005 17007 17009 1 180.0000771 15.1670000 2
17005 17007 17009 17010 1 180.0000771 15.1670000 2
17005 17007 17009 17011 1 180.0000771 15.1670000 2
17008 17007 17009 17010 1 180.0000771 15.1670000 2
17008 17007 17009 17011 1 180.0000771 15.1670000 2
17005 17009 17007 17008 4 180.0000771 4.6024000 2
17007 17009 17011 17012 1 180.0000771 15.1670000 2
17007 17009 17011 17013 1 180.0000771 15.1670000 2
17010 17009 17011 17012 1 180.0000771 15.1670000 2
17010 17009 17011 17013 1 180.0000771 15.1670000 2
17007 17011 17009 17010 4 180.0000771 4.6024000 2
17004 17011 17013 17014 4 180.0000771 4.6024000 2
17009 17011 17013 17014 1 180.0000771 15.1670000 2
17012 17011 17013 17014 1 180.0000771 15.1670000 2
17004 17013 17011 17009 1 180.0000771 15.1670000 2
17004 17013 17011 17012 1 180.0000771 15.1670000 2
17009 17013 17011 17012 4 180.0000771 4.6024000 2
17017 17018 17019 17020 1 180.0000771 15.1670000 2
17017 17018 17019 17021 1 180.0000771 15.1670000 2
17020 17018 17019 17021 4 180.0000771 4.6024000 2
17017 17018 17027 17019 4 180.0000771 4.6024000 2
17017 17018 17027 17025 1 180.0000771 15.1670000 2
17017 17018 17027 17028 1 180.0000771 15.1670000 2
17019 17018 17027 17025 1 180.0000771 15.1670000 2
17019 17018 17027 17028 1 180.0000771 15.1670000 2
17020 17019 17018 17027 1 180.0000771 15.1670000 2
17021 17019 17018 17027 1 180.0000771 15.1670000 2
17018 17019 17021 17022 1 180.0000771 15.1670000 2
17018 17019 17021 17023 1 180.0000771 15.1670000 2
17020 17019 17021 17022 1 180.0000771 15.1670000 2
17020 17019 17021 17023 1 180.0000771 15.1670000 2
17019 17021 17023 17024 1 180.0000771 15.1670000 2
17019 17021 17023 17025 1 180.0000771 15.1670000 2
17022 17021 17023 17024 1 180.0000771 15.1670000 2
17022 17021 17023 17025 1 180.0000771 15.1670000 2
17019 17023 17021 17022 4 180.0000771 4.6024000 2
17021 17023 17025 17026 1 180.0000771 15.1670000 2
17021 17023 17025 17027 1 180.0000771 15.1670000 2
17024 17023 17025 17026 1 180.0000771 15.1670000 2
17024 17023 17025 17027 1 180.0000771 15.1670000 2
17021 17025 17023 17024 4 180.0000771 4.6024000 2
17018 17025 17027 17028 4 180.0000771 4.6024000 2
17023 17025 17027 17028 1 180.0000771 15.1670000 2
17026 17025 17027 17028 1 180.0000771 15.1670000 2
17018 17027 17025 17023 1 180.0000771 15.1670000 2
17018 17027 17025 17026 1 180.0000771 15.1670000 2
17023 17027 17025 17026 4 180.0000771 4.6024000 2
17031 17032 17033 17034 1 180.0000771 15.1670000 2
17031 17032 17033 17035 1 180.0000771 15.1670000 2
17034 17032 17033 17035 4 180.0000771 4.6024000 2
17031 17032 17041 17033 4 180.0000771 4.6024000 2
17031 17032 17041 17039 1 180.0000771 15.1670000 2
17031 17032 17041 17042 1 180.0000771 15.1670000 2
17033 17032 17041 17039 1 180.0000771 15.1670000 2
17033 17032 17041 17042 1 180.0000771 15.1670000 2
17034 17033 17032 17041 1 180.0000771 15.1670000 2
17035 17033 17032 17041 1 180.0000771 15.1670000 2
17032 17033 17035 17036 1 180.0000771 15.1670000 2
17032 17033 17035 17037 1 180.0000771 15.1670000 2
17034 17033 17035 17036 1 180.0000771 15.1670000 2
17034 17033 17035 17037 1 180.0000771 15.1670000 2
17033 17035 17037 17038 1 180.0000771 15.1670000 2
17033 17035 17037 17039 1 180.0000771 15.1670000 2
17036 17035 17037 17038 1 180.0000771 15.1670000 2
17036 17035 17037 17039 1 180.0000771 15.1670000 2
17033 17037 17035 17036 4 180.0000771 4.6024000 2
17035 17037 17039 17040 1 180.0000771 15.1670000 2
17035 17037 17039 17041 1 180.0000771 15.1670000 2
17038 17037 17039 17040 1 180.0000771 15.1670000 2
17038 17037 17039 17041 1 180.0000771 15.1670000 2
17035 17039 17037 17038 4 180.0000771 4.6024000 2
17032 17039 17041 17042 4 180.0000771 4.6024000 2
17037 17039 17041 17042 1 180.0000771 15.1670000 2
17040 17039 17041 17042 1 180.0000771 15.1670000 2
17032 17041 17039 17037 1 180.0000771 15.1670000 2
17032 17041 17039 17040 1 180.0000771 15.1670000 2
17037 17041 17039 17040 4 180.0000771 4.6024000 2
17045 17046 17047 17048 1 180.0000771 15.1670000 2
17045 17046 17047 17049 1 180.0000771 15.1670000 2
17048 17046 17047 17049 4 180.0000771 4.6024000 2
17045 17046 17055 17047 4 180.0000771 4.6024000 2
17045 17046 17055 17053 1 180.0000771 15.1670000 2
17045 17046 17055 17056 1 180.0000771 15.1670000 2
17047 17046 17055 17053 1 180.0000771 15.1670000 2
17047 17046 17055 17056 1 180.0000771 15.1670000 2
17048 17047 17046 17055 1 180.0000771 15.1670000 2
17049 17047 17046 17055 1 180.0000771 15.1670000 2
17046 17047 17049 17050 1 180.0000771 15.1670000 2
17046 17047 17049 17051 1 180.0000771 15.1670000 2
17048 17047 17049 17050 1 180.0000771 15.1670000 2
17048 17047 17049 17051 1 180.0000771 15.1670000 2
17047 17049 17051 17052 1 180.0000771 15.1670000 2
17047 17049 17051 17053 1 180.0000771 15.1670000 2
17050 17049 17051 17052 1 180.0000771 15.1670000 2
17050 17049 17051 17053 1 180.0000771 15.1670000 2
17047 17051 17049 17050 4 180.0000771 4.6024000 2
17049 17051 17053 17054 1 180.0000771 15.1670000 2
17049 17051 17053 17055 1 180.0000771 15.1670000 2
17052 17051 17053 17054 1 180.0000771 15.1670000 2
17052 17051 17053 17055 1 180.0000771 15.1670000 2
17049 17053 17051 17052 4 180.0000771 4.6024000 2
17046 17053 17055 17056 4 180.0000771 4.6024000 2
17051 17053 17055 17056 1 180.0000771 15.1670000 2
17054 17053 17055 17056 1 180.0000771 15.1670000 2
17046 17055 17053 17051 1 180.0000771 15.1670000 2
17046 17055 17053 17054 1 180.0000771 15.1670000 2
17051 17055 17053 17054 4 180.0000771 4.6024000 2
17059 17060 17061 17062 1 180.0000771 15.1670000 2
17059 17060 17061 17063 1 180.0000771 15.1670000 2
17062 17060 17061 17063 4 180.0000771 4.6024000 2
17059 17060 17069 17061 4 180.0000771 4.6024000 2
17059 17060 17069 17067 1 180.0000771 15.1670000 2
17059 17060 17069 17070 1 180.0000771 15.1670000 2
17061 17060 17069 17067 1 180.0000771 15.1670000 2
17061 17060 17069 17070 1 180.0000771 15.1670000 2
17062 17061 17060 17069 1 180.0000771 15.1670000 2
17063 17061 17060 17069 1 180.0000771 15.1670000 2
17060 17061 17063 17064 1 180.0000771 15.1670000 2
17060 17061 17063 17065 1 180.0000771 15.1670000 2
17062 17061 17063 17064 1 180.0000771 15.1670000 2
17062 17061 17063 17065 1 180.0000771 15.1670000 2
17061 17063 17065 17066 1 180.0000771 15.1670000 2
17061 17063 17065 17067 1 180.0000771 15.1670000 2
17064 17063 17065 17066 1 180.0000771 15.1670000 2
17064 17063 17065 17067 1 180.0000771 15.1670000 2
17061 17065 17063 17064 4 180.0000771 4.6024000 2
17063 17065 17067 17068 1 180.0000771 15.1670000 2
17063 17065 17067 17069 1 180.0000771 15.1670000 2
17066 17065 17067 17068 1 180.0000771 15.1670000 2
17066 17065 17067 17069 1 180.0000771 15.1670000 2
17063 17067 17065 17066 4 180.0000771 4.6024000 2
17060 17067 17069 17070 4 180.0000771 4.6024000 2
17065 17067 17069 17070 1 180.0000771 15.1670000 2
17068 17067 17069 17070 1 180.0000771 15.1670000 2
17060 17069 17067 17065 1 180.0000771 15.1670000 2
17060 17069 17067 17068 1 180.0000771 15.1670000 2
17065 17069 17067 17068 4 180.0000771 4.6024000 2
17073 17074 17075 17076 1 180.0000771 15.1670000 2
17073 17074 17075 17077 1 180.0000771 15.1670000 2
17076 17074 17075 17077 4 180.0000771 4.6024000 2
17073 17074 17083 17075 4 180.0000771 4.6024000 2
17073 17074 17083 17081 1 180.0000771 15.1670000 2
17073 17074 17083 17084 1 180.0000771 15.1670000 2
17075 17074 17083 17081 1 180.0000771 15.1670000 2
17075 17074 17083 17084 1 180.0000771 15.1670000 2
17076 17075 17074 17083 1 180.0000771 15.1670000 2
17077 17075 17074 17083 1 180.0000771 15.1670000 2
17074 17075 17077 17078 1 180.0000771 15.1670000 2
17074 17075 17077 17079 1 180.0000771 15.1670000 2
17076 17075 17077 17078 1 180.0000771 15.1670000 2
17076 17075 17077 17079 1 180.0000771 15.1670000 2
17075 17077 17079 17080 1 180.0000771 15.1670000 2
17075 17077 17079 17081 1 180.0000771 15.1670000 2
17078 17077 17079 17080 1 180.0000771 15.1670000 2
17078 17077 17079 17081 1 180.0000771 15.1670000 2
17075 17079 17077 17078 4 180.0000771 4.6024000 2
17077 17079 17081 17082 1 180.0000771 15.1670000 2
17077 17079 17081 17083 1 180.0000771 15.1670000 2
17080 17079 17081 17082 1 180.0000771 15.1670000 2
17080 17079 17081 17083 1 180.0000771 15.1670000 2
17077 17081 17079 17080 4 180.0000771 4.6024000 2
17074 17081 17083 17084 4 180.0000771 4.6024000 2
17079 17081 17083 17084 1 180.0000771 15.1670000 2
17082 17081 17083 17084 1 180.0000771 15.1670000 2
17074 17083 17081 17079 1 180.0000771 15.1670000 2
17074 17083 17081 17082 1 180.0000771 15.1670000 2
17079 17083 17081 17082 4 180.0000771 4.6024000 2
17087 17088 17089 17090 1 180.0000771 15.1670000 2
17087 17088 17089 17091 1 180.0000771 15.1670000 2
17090 17088 17089 17091 4 180.0000771 4.6024000 2
17087 17088 17097 17089 4 180.0000771 4.6024000 2
17087 17088 17097 17095 1 180.0000771 15.1670000 2
17087 17088 17097 17098 1 180.0000771 15.1670000 2
17089 17088 17097 17095 1 180.0000771 15.1670000 2
17089 17088 17097 17098 1 180.0000771 15.1670000 2
17090 17089 17088 17097 1 180.0000771 15.1670000 2
17091 17089 17088 17097 1 180.0000771 15.1670000 2
17088 17089 17091 17092 1 180.0000771 15.1670000 2
17088 17089 17091 17093 1 180.0000771 15.1670000 2
17090 17089 17091 17092 1 180.0000771 15.1670000 2
17090 17089 17091 17093 1 180.0000771 15.1670000 2
17089 17091 17093 17094 1 180.0000771 15.1670000 2
17089 17091 17093 17095 1 180.0000771 15.1670000 2
17092 17091 17093 17094 1 180.0000771 15.1670000 2
17092 17091 17093 17095 1 180.0000771 15.1670000 2
17089 17093 17091 17092 4 180.0000771 4.6024000 2
17091 17093 17095 17096 1 180.0000771 15.1670000 2
17091 17093 17095 17097 1 180.0000771 15.1670000 2
17094 17093 17095 17096 1 180.0000771 15.1670000 2
17094 17093 17095 17097 1 180.0000771 15.1670000 2
17091 17095 17093 17094 4 180.0000771 4.6024000 2
17088 17095 17097 17098 4 180.0000771 4.6024000 2
17093 17095 17097 17098 1 180.0000771 15.1670000 2
17096 17095 17097 17098 1 180.0000771 15.1670000 2
17088 17097 17095 17093 1 180.0000771 15.1670000 2
17088 17097 17095 17096 1 180.0000771 15.1670000 2
17093 17097 17095 17096 4 180.0000771 4.6024000 2
17101 17102 17103 17104 1 180.0000771 15.1670000 2
17101 17102 17103 17105 1 180.0000771 15.1670000 2
17104 17102 17103 17105 4 180.0000771 4.6024000 2
17101 17102 17111 17103 4 180.0000771 4.6024000 2
17101 17102 17111 17109 1 180.0000771 15.1670000 2
17101 17102 17111 17112 1 180.0000771 15.1670000 2
17103 17102 17111 17109 1 180.0000771 15.1670000 2
17103 17102 17111 17112 1 180.0000771 15.1670000 2
17104 17103 17102 17111 1 180.0000771 15.1670000 2
17105 17103 17102 17111 1 180.0000771 15.1670000 2
17102 17103 17105 17106 1 180.0000771 15.1670000 2
17102 17103 17105 17107 1 180.0000771 15.1670000 2
17104 17103 17105 17106 1 180.0000771 15.1670000 2
17104 17103 17105 17107 1 180.0000771 15.1670000 2
17103 17105 17107 17108 1 180.0000771 15.1670000 2
17103 17105 17107 17109 1 180.0000771 15.1670000 2
17106 17105 17107 17108 1 180.0000771 15.1670000 2
17106 17105 17107 17109 1 180.0000771 15.1670000 2
17103 17107 17105 17106 4 180.0000771 4.6024000 2
17105 17107 17109 17110 1 180.0000771 15.1670000 2
17105 17107 17109 17111 1 180.0000771 15.1670000 2
17108 17107 17109 17110 1 180.0000771 15.1670000 2
17108 17107 17109 17111 1 180.0000771 15.1670000 2
17105 17109 17107 17108 4 180.0000771 4.6024000 2
17102 17109 17111 17112 4 180.0000771 4.6024000 2
17107 17109 17111 17112 1 180.0000771 15.1670000 2
17110 17109 17111 17112 1 180.0000771 15.1670000 2
17102 17111 17109 17107 1 180.0000771 15.1670000 2
17102 17111 17109 17110 1 180.0000771 15.1670000 2
17107 17111 17109 17110 4 180.0000771 4.6024000 2
17115 17116 17117 17118 1 180.0000771 15.1670000 2
17115 17116 17117 17119 1 180.0000771 15.1670000 2
17118 17116 17117 17119 4 180.0000771 4.6024000 2
17115 17116 17125 17117 4 180.0000771 4.6024000 2
17115 17116 17125 17123 1 180.0000771 15.1670000 2
17115 17116 17125 17126 1 180.0000771 15.1670000 2
17117 17116 17125 17123 1 180.0000771 15.1670000 2
17117 17116 17125 17126 1 180.0000771 15.1670000 2
17118 17117 17116 17125 1 180.0000771 15.1670000 2
17119 17117 17116 17125 1 180.0000771 15.1670000 2
17116 17117 17119 17120 1 180.0000771 15.1670000 2
17116 17117 17119 17121 1 180.0000771 15.1670000 2
17118 17117 17119 17120 1 180.0000771 15.1670000 2
17118 17117 17119 17121 1 180.0000771 15.1670000 2
17117 17119 17121 17122 1 180.0000771 15.1670000 2
17117 17119 17121 17123 1 180.0000771 15.1670000 2
17120 17119 17121 17122 1 180.0000771 15.1670000 2
17120 17119 17121 17123 1 180.0000771 15.1670000 2
17117 17121 17119 17120 4 180.0000771 4.6024000 2
17119 17121 17123 17124 1 180.0000771 15.1670000 2
17119 17121 17123 17125 1 180.0000771 15.1670000 2
17122 17121 17123 17124 1 180.0000771 15.1670000 2
17122 17121 17123 17125 1 180.0000771 15.1670000 2
17119 17123 17121 17122 4 180.0000771 4.6024000 2
17116 17123 17125 17126 4 180.0000771 4.6024000 2
17121 17123 17125 17126 1 180.0000771 15.1670000 2
17124 17123 17125 17126 1 180.0000771 15.1670000 2
17116 17125 17123 17121 1 180.0000771 15.1670000 2
17116 17125 17123 17124 1 180.0000771 15.1670000 2
17121 17125 17123 17124 4 180.0000771 4.6024000 2
17129 17130 17131 17132 1 180.0000771 15.1670000 2
17129 17130 17131 17133 1 180.0000771 15.1670000 2
17132 17130 17131 17133 4 180.0000771 4.6024000 2
17129 17130 17139 17131 4 180.0000771 4.6024000 2
17129 17130 17139 17137 1 180.0000771 15.1670000 2
17129 17130 17139 17140 1 180.0000771 15.1670000 2
17131 17130 17139 17137 1 180.0000771 15.1670000 2
17131 17130 17139 17140 1 180.0000771 15.1670000 2
17132 17131 17130 17139 1 180.0000771 15.1670000 2
17133 17131 17130 17139 1 180.0000771 15.1670000 2
17130 17131 17133 17134 1 180.0000771 15.1670000 2
17130 17131 17133 17135 1 180.0000771 15.1670000 2
17132 17131 17133 17134 1 180.0000771 15.1670000 2
17132 17131 17133 17135 1 180.0000771 15.1670000 2
17131 17133 17135 17136 1 180.0000771 15.1670000 2
17131 17133 17135 17137 1 180.0000771 15.1670000 2
17134 17133 17135 17136 1 180.0000771 15.1670000 2
17134 17133 17135 17137 1 180.0000771 15.1670000 2
17131 17135 17133 17134 4 180.0000771 4.6024000 2
17133 17135 17137 17138 1 180.0000771 15.1670000 2
17133 17135 17137 17139 1 180.0000771 15.1670000 2
17136 17135 17137 17138 1 180.0000771 15.1670000 2
17136 17135 17137 17139 1 180.0000771 15.1670000 2
17133 17137 17135 17136 4 180.0000771 4.6024000 2
17130 17137 17139 17140 4 180.0000771 4.6024000 2
17135 17137 17139 17140 1 180.0000771 15.1670000 2
17138 17137 17139 17140 1 180.0000771 15.1670000 2
17130 17139 17137 17135 1 180.0000771 15.1670000 2
17130 17139 17137 17138 1 180.0000771 15.1670000 2
17135 17139 17137 17138 4 180.0000771 4.6024000 2
17143 17144 17145 17146 1 180.0000771 15.1670000 2
17143 17144 17145 17147 1 180.0000771 15.1670000 2
17146 17144 17145 17147 4 180.0000771 4.6024000 2
17143 17144 17153 17145 4 180.0000771 4.6024000 2
17143 17144 17153 17151 1 180.0000771 15.1670000 2
17143 17144 17153 17154 1 180.0000771 15.1670000 2
17145 17144 17153 17151 1 180.0000771 15.1670000 2
17145 17144 17153 17154 1 180.0000771 15.1670000 2
17146 17145 17144 17153 1 180.0000771 15.1670000 2
17147 17145 17144 17153 1 180.0000771 15.1670000 2
17144 17145 17147 17148 1 180.0000771 15.1670000 2
17144 17145 17147 17149 1 180.0000771 15.1670000 2
17146 17145 17147 17148 1 180.0000771 15.1670000 2
17146 17145 17147 17149 1 180.0000771 15.1670000 2
17145 17147 17149 17150 1 180.0000771 15.1670000 2
17145 17147 17149 17151 1 180.0000771 15.1670000 2
17148 17147 17149 17150 1 180.0000771 15.1670000 2
17148 17147 17149 17151 1 180.0000771 15.1670000 2
17145 17149 17147 17148 4 180.0000771 4.6024000 2
17147 17149 17151 17152 1 180.0000771 15.1670000 2
17147 17149 17151 17153 1 180.0000771 15.1670000 2
17150 17149 17151 17152 1 180.0000771 15.1670000 2
17150 17149 17151 17153 1 180.0000771 15.1670000 2
17147 17151 17149 17150 4 180.0000771 4.6024000 2
17144 17151 17153 17154 4 180.0000771 4.6024000 2
17149 17151 17153 17154 1 180.0000771 15.1670000 2
17152 17151 17153 17154 1 180.0000771 15.1670000 2
17144 17153 17151 17149 1 180.0000771 15.1670000 2
17144 17153 17151 17152 1 180.0000771 15.1670000 2
17149 17153 17151 17152 4 180.0000771 4.6024000 2
17157 17158 17159 17160 1 180.0000771 15.1670000 2
17157 17158 17159 17161 1 180.0000771 15.1670000 2
17160 17158 17159 17161 4 180.0000771 4.6024000 2
17157 17158 17167 17159 4 180.0000771 4.6024000 2
17157 17158 17167 17165 1 180.0000771 15.1670000 2
17157 17158 17167 17168 1 180.0000771 15.1670000 2
17159 17158 17167 17165 1 180.0000771 15.1670000 2
17159 17158 17167 17168 1 180.0000771 15.1670000 2
17160 17159 17158 17167 1 180.0000771 15.1670000 2
17161 17159 17158 17167 1 180.0000771 15.1670000 2
17158 17159 17161 17162 1 180.0000771 15.1670000 2
17158 17159 17161 17163 1 180.0000771 15.1670000 2
17160 17159 17161 17162 1 180.0000771 15.1670000 2
17160 17159 17161 17163 1 180.0000771 15.1670000 2
17159 17161 17163 17164 1 180.0000771 15.1670000 2
17159 17161 17163 17165 1 180.0000771 15.1670000 2
17162 17161 17163 17164 1 180.0000771 15.1670000 2
17162 17161 17163 17165 1 180.0000771 15.1670000 2
17159 17163 17161 17162 4 180.0000771 4.6024000 2
17161 17163 17165 17166 1 180.0000771 15.1670000 2
17161 17163 17165 17167 1 180.0000771 15.1670000 2
17164 17163 17165 17166 1 180.0000771 15.1670000 2
17164 17163 17165 17167 1 180.0000771 15.1670000 2
17161 17165 17163 17164 4 180.0000771 4.6024000 2
17158 17165 17167 17168 4 180.0000771 4.6024000 2
17163 17165 17167 17168 1 180.0000771 15.1670000 2
17166 17165 17167 17168 1 180.0000771 15.1670000 2
17158 17167 17165 17163 1 180.0000771 15.1670000 2
17158 17167 17165 17166 1 180.0000771 15.1670000 2
17163 17167 17165 17166 4 180.0000771 4.6024000 2
17171 17172 17173 17174 1 180.0000771 15.1670000 2
17171 17172 17173 17175 1 180.0000771 15.1670000 2
17174 17172 17173 17175 4 180.0000771 4.6024000 2
17171 17172 17181 17173 4 180.0000771 4.6024000 2
17171 17172 17181 17179 1 180.0000771 15.1670000 2
17171 17172 17181 17182 1 180.0000771 15.1670000 2
17173 17172 17181 17179 1 180.0000771 15.1670000 2
17173 17172 17181 17182 1 180.0000771 15.1670000 2
17174 17173 17172 17181 1 180.0000771 15.1670000 2
17175 17173 17172 17181 1 180.0000771 15.1670000 2
17172 17173 17175 17176 1 180.0000771 15.1670000 2
17172 17173 17175 17177 1 180.0000771 15.1670000 2
17174 17173 17175 17176 1 180.0000771 15.1670000 2
17174 17173 17175 17177 1 180.0000771 15.1670000 2
17173 17175 17177 17178 1 180.0000771 15.1670000 2
17173 17175 17177 17179 1 180.0000771 15.1670000 2
17176 17175 17177 17178 1 180.0000771 15.1670000 2
17176 17175 17177 17179 1 180.0000771 15.1670000 2
17173 17177 17175 17176 4 180.0000771 4.6024000 2
17175 17177 17179 17180 1 180.0000771 15.1670000 2
17175 17177 17179 17181 1 180.0000771 15.1670000 2
17178 17177 17179 17180 1 180.0000771 15.1670000 2
17178 17177 17179 17181 1 180.0000771 15.1670000 2
17175 17179 17177 17178 4 180.0000771 4.6024000 2
17172 17179 17181 17182 4 180.0000771 4.6024000 2
17177 17179 17181 17182 1 180.0000771 15.1670000 2
17180 17179 17181 17182 1 180.0000771 15.1670000 2
17172 17181 17179 17177 1 180.0000771 15.1670000 2
17172 17181 17179 17180 1 180.0000771 15.1670000 2
17177 17181 17179 17180 4 180.0000771 4.6024000 2
17185 17186 17187 17188 1 180.0000771 15.1670000 2
17185 17186 17187 17189 1 180.0000771 15.1670000 2
17188 17186 17187 17189 4 180.0000771 4.6024000 2
17185 17186 17195 17187 4 180.0000771 4.6024000 2
17185 17186 17195 17193 1 180.0000771 15.1670000 2
17185 17186 17195 17196 1 180.0000771 15.1670000 2
17187 17186 17195 17193 1 180.0000771 15.1670000 2
17187 17186 17195 17196 1 180.0000771 15.1670000 2
17188 17187 17186 17195 1 180.0000771 15.1670000 2
17189 17187 17186 17195 1 180.0000771 15.1670000 2
17186 17187 17189 17190 1 180.0000771 15.1670000 2
17186 17187 17189 17191 1 180.0000771 15.1670000 2
17188 17187 17189 17190 1 180.0000771 15.1670000 2
17188 17187 17189 17191 1 180.0000771 15.1670000 2
17187 17189 17191 17192 1 180.0000771 15.1670000 2
17187 17189 17191 17193 1 180.0000771 15.1670000 2
17190 17189 17191 17192 1 180.0000771 15.1670000 2
17190 17189 17191 17193 1 180.0000771 15.1670000 2
17187 17191 17189 17190 4 180.0000771 4.6024000 2
17189 17191 17193 17194 1 180.0000771 15.1670000 2
17189 17191 17193 17195 1 180.0000771 15.1670000 2
17192 17191 17193 17194 1 180.0000771 15.1670000 2
17192 17191 17193 17195 1 180.0000771 15.1670000 2
17189 17193 17191 17192 4 180.0000771 4.6024000 2
17186 17193 17195 17196 4 180.0000771 4.6024000 2
17191 17193 17195 17196 1 180.0000771 15.1670000 2
17194 17193 17195 17196 1 180.0000771 15.1670000 2
17186 17195 17193 17191 1 180.0000771 15.1670000 2
17186 17195 17193 17194 1 180.0000771 15.1670000 2
17191 17195 17193 17194 4 180.0000771 4.6024000 2
17199 17200 17201 17202 1 180.0000771 15.1670000 2
17199 17200 17201 17203 1 180.0000771 15.1670000 2
17202 17200 17201 17203 4 180.0000771 4.6024000 2
17199 17200 17209 17201 4 180.0000771 4.6024000 2
17199 17200 17209 17207 1 180.0000771 15.1670000 2
17199 17200 17209 17210 1 180.0000771 15.1670000 2
17201 17200 17209 17207 1 180.0000771 15.1670000 2
17201 17200 17209 17210 1 180.0000771 15.1670000 2
17202 17201 17200 17209 1 180.0000771 15.1670000 2
17203 17201 17200 17209 1 180.0000771 15.1670000 2
17200 17201 17203 17204 1 180.0000771 15.1670000 2
17200 17201 17203 17205 1 180.0000771 15.1670000 2
17202 17201 17203 17204 1 180.0000771 15.1670000 2
17202 17201 17203 17205 1 180.0000771 15.1670000 2
17201 17203 17205 17206 1 180.0000771 15.1670000 2
17201 17203 17205 17207 1 180.0000771 15.1670000 2
17204 17203 17205 17206 1 180.0000771 15.1670000 2
17204 17203 17205 17207 1 180.0000771 15.1670000 2
17201 17205 17203 17204 4 180.0000771 4.6024000 2
17203 17205 17207 17208 1 180.0000771 15.1670000 2
17203 17205 17207 17209 1 180.0000771 15.1670000 2
17206 17205 17207 17208 1 180.0000771 15.1670000 2
17206 17205 17207 17209 1 180.0000771 15.1670000 2
17203 17207 17205 17206 4 180.0000771 4.6024000 2
17200 17207 17209 17210 4 180.0000771 4.6024000 2
17205 17207 17209 17210 1 180.0000771 15.1670000 2
17208 17207 17209 17210 1 180.0000771 15.1670000 2
17200 17209 17207 17205 1 180.0000771 15.1670000 2
17200 17209 17207 17208 1 180.0000771 15.1670000 2
17205 17209 17207 17208 4 180.0000771 4.6024000 2
17213 17214 17215 17216 1 180.0000771 15.1670000 2
17213 17214 17215 17217 1 180.0000771 15.1670000 2
17216 17214 17215 17217 4 180.0000771 4.6024000 2
17213 17214 17223 17215 4 180.0000771 4.6024000 2
17213 17214 17223 17221 1 180.0000771 15.1670000 2
17213 17214 17223 17224 1 180.0000771 15.1670000 2
17215 17214 17223 17221 1 180.0000771 15.1670000 2
17215 17214 17223 17224 1 180.0000771 15.1670000 2
17216 17215 17214 17223 1 180.0000771 15.1670000 2
17217 17215 17214 17223 1 180.0000771 15.1670000 2
17214 17215 17217 17218 1 180.0000771 15.1670000 2
17214 17215 17217 17219 1 180.0000771 15.1670000 2
17216 17215 17217 17218 1 180.0000771 15.1670000 2
17216 17215 17217 17219 1 180.0000771 15.1670000 2
17215 17217 17219 17220 1 180.0000771 15.1670000 2
17215 17217 17219 17221 1 180.0000771 15.1670000 2
17218 17217 17219 17220 1 180.0000771 15.1670000 2
17218 17217 17219 17221 1 180.0000771 15.1670000 2
17215 17219 17217 17218 4 180.0000771 4.6024000 2
17217 17219 17221 17222 1 180.0000771 15.1670000 2
17217 17219 17221 17223 1 180.0000771 15.1670000 2
17220 17219 17221 17222 1 180.0000771 15.1670000 2
17220 17219 17221 17223 1 180.0000771 15.1670000 2
17217 17221 17219 17220 4 180.0000771 4.6024000 2
17214 17221 17223 17224 4 180.0000771 4.6024000 2
17219 17221 17223 17224 1 180.0000771 15.1670000 2
17222 17221 17223 17224 1 180.0000771 15.1670000 2
17214 17223 17221 17219 1 180.0000771 15.1670000 2
17214 17223 17221 17222 1 180.0000771 15.1670000 2
17219 17223 17221 17222 4 180.0000771 4.6024000 2
17227 17228 17229 17230 1 180.0000771 15.1670000 2
17227 17228 17229 17231 1 180.0000771 15.1670000 2
17230 17228 17229 17231 4 180.0000771 4.6024000 2
17227 17228 17237 17229 4 180.0000771 4.6024000 2
17227 17228 17237 17235 1 180.0000771 15.1670000 2
17227 17228 17237 17238 1 180.0000771 15.1670000 2
17229 17228 17237 17235 1 180.0000771 15.1670000 2
17229 17228 17237 17238 1 180.0000771 15.1670000 2
17230 17229 17228 17237 1 180.0000771 15.1670000 2
17231 17229 17228 17237 1 180.0000771 15.1670000 2
17228 17229 17231 17232 1 180.0000771 15.1670000 2
17228 17229 17231 17233 1 180.0000771 15.1670000 2
17230 17229 17231 17232 1 180.0000771 15.1670000 2
17230 17229 17231 17233 1 180.0000771 15.1670000 2
17229 17231 17233 17234 1 180.0000771 15.1670000 2
17229 17231 17233 17235 1 180.0000771 15.1670000 2
17232 17231 17233 17234 1 180.0000771 15.1670000 2
17232 17231 17233 17235 1 180.0000771 15.1670000 2
17229 17233 17231 17232 4 180.0000771 4.6024000 2
17231 17233 17235 17236 1 180.0000771 15.1670000 2
17231 17233 17235 17237 1 180.0000771 15.1670000 2
17234 17233 17235 17236 1 180.0000771 15.1670000 2
17234 17233 17235 17237 1 180.0000771 15.1670000 2
17231 17235 17233 17234 4 180.0000771 4.6024000 2
17228 17235 17237 17238 4 180.0000771 4.6024000 2
17233 17235 17237 17238 1 180.0000771 15.1670000 2
17236 17235 17237 17238 1 180.0000771 15.1670000 2
17228 17237 17235 17233 1 180.0000771 15.1670000 2
17228 17237 17235 17236 1 180.0000771 15.1670000 2
17233 17237 17235 17236 4 180.0000771 4.6024000 2
17241 17242 17243 17244 1 180.0000771 15.1670000 2
17241 17242 17243 17245 1 180.0000771 15.1670000 2
17244 17242 17243 17245 4 180.0000771 4.6024000 2
17241 17242 17251 17243 4 180.0000771 4.6024000 2
17241 17242 17251 17249 1 180.0000771 15.1670000 2
17241 17242 17251 17252 1 180.0000771 15.1670000 2
17243 17242 17251 17249 1 180.0000771 15.1670000 2
17243 17242 17251 17252 1 180.0000771 15.1670000 2
17244 17243 17242 17251 1 180.0000771 15.1670000 2
17245 17243 17242 17251 1 180.0000771 15.1670000 2
17242 17243 17245 17246 1 180.0000771 15.1670000 2
17242 17243 17245 17247 1 180.0000771 15.1670000 2
17244 17243 17245 17246 1 180.0000771 15.1670000 2
17244 17243 17245 17247 1 180.0000771 15.1670000 2
17243 17245 17247 17248 1 180.0000771 15.1670000 2
17243 17245 17247 17249 1 180.0000771 15.1670000 2
17246 17245 17247 17248 1 180.0000771 15.1670000 2
17246 17245 17247 17249 1 180.0000771 15.1670000 2
17243 17247 17245 17246 4 180.0000771 4.6024000 2
17245 17247 17249 17250 1 180.0000771 15.1670000 2
17245 17247 17249 17251 1 180.0000771 15.1670000 2
17248 17247 17249 17250 1 180.0000771 15.1670000 2
17248 17247 17249 17251 1 180.0000771 15.1670000 2
17245 17249 17247 17248 4 180.0000771 4.6024000 2
17242 17249 17251 17252 4 180.0000771 4.6024000 2
17247 17249 17251 17252 1 180.0000771 15.1670000 2
17250 17249 17251 17252 1 180.0000771 15.1670000 2
17242 17251 17249 17247 1 180.0000771 15.1670000 2
17242 17251 17249 17250 1 180.0000771 15.1670000 2
17247 17251 17249 17250 4 180.0000771 4.6024000 2
17255 17256 17257 17258 1 180.0000771 15.1670000 2
17255 17256 17257 17259 1 180.0000771 15.1670000 2
17258 17256 17257 17259 4 180.0000771 4.6024000 2
17255 17256 17265 17257 4 180.0000771 4.6024000 2
17255 17256 17265 17263 1 180.0000771 15.1670000 2
17255 17256 17265 17266 1 180.0000771 15.1670000 2
17257 17256 17265 17263 1 180.0000771 15.1670000 2
17257 17256 17265 17266 1 180.0000771 15.1670000 2
17258 17257 17256 17265 1 180.0000771 15.1670000 2
17259 17257 17256 17265 1 180.0000771 15.1670000 2
17256 17257 17259 17260 1 180.0000771 15.1670000 2
17256 17257 17259 17261 1 180.0000771 15.1670000 2
17258 17257 17259 17260 1 180.0000771 15.1670000 2
17258 17257 17259 17261 1 180.0000771 15.1670000 2
17257 17259 17261 17262 1 180.0000771 15.1670000 2
17257 17259 17261 17263 1 180.0000771 15.1670000 2
17260 17259 17261 17262 1 180.0000771 15.1670000 2
17260 17259 17261 17263 1 180.0000771 15.1670000 2
17257 17261 17259 17260 4 180.0000771 4.6024000 2
17259 17261 17263 17264 1 180.0000771 15.1670000 2
17259 17261 17263 17265 1 180.0000771 15.1670000 2
17262 17261 17263 17264 1 180.0000771 15.1670000 2
17262 17261 17263 17265 1 180.0000771 15.1670000 2
17259 17263 17261 17262 4 180.0000771 4.6024000 2
17256 17263 17265 17266 4 180.0000771 4.6024000 2
17261 17263 17265 17266 1 180.0000771 15.1670000 2
17264 17263 17265 17266 1 180.0000771 15.1670000 2
17256 17265 17263 17261 1 180.0000771 15.1670000 2
17256 17265 17263 17264 1 180.0000771 15.1670000 2
17261 17265 17263 17264 4 180.0000771 4.6024000 2
17269 17270 17271 17272 1 180.0000771 15.1670000 2
17269 17270 17271 17273 1 180.0000771 15.1670000 2
17272 17270 17271 17273 4 180.0000771 4.6024000 2
17269 17270 17279 17271 4 180.0000771 4.6024000 2
17269 17270 17279 17277 1 180.0000771 15.1670000 2
17269 17270 17279 17280 1 180.0000771 15.1670000 2
17271 17270 17279 17277 1 180.0000771 15.1670000 2
17271 17270 17279 17280 1 180.0000771 15.1670000 2
17272 17271 17270 17279 1 180.0000771 15.1670000 2
17273 17271 17270 17279 1 180.0000771 15.1670000 2
17270 17271 17273 17274 1 180.0000771 15.1670000 2
17270 17271 17273 17275 1 180.0000771 15.1670000 2
17272 17271 17273 17274 1 180.0000771 15.1670000 2
17272 17271 17273 17275 1 180.0000771 15.1670000 2
17271 17273 17275 17276 1 180.0000771 15.1670000 2
17271 17273 17275 17277 1 180.0000771 15.1670000 2
17274 17273 17275 17276 1 180.0000771 15.1670000 2
17274 17273 17275 17277 1 180.0000771 15.1670000 2
17271 17275 17273 17274 4 180.0000771 4.6024000 2
17273 17275 17277 17278 1 180.0000771 15.1670000 2
17273 17275 17277 17279 1 180.0000771 15.1670000 2
17276 17275 17277 17278 1 180.0000771 15.1670000 2
17276 17275 17277 17279 1 180.0000771 15.1670000 2
17273 17277 17275 17276 4 180.0000771 4.6024000 2
17270 17277 17279 17280 4 180.0000771 4.6024000 2
17275 17277 17279 17280 1 180.0000771 15.1670000 2
17278 17277 17279 17280 1 180.0000771 15.1670000 2
17270 17279 17277 17275 1 180.0000771 15.1670000 2
17270 17279 17277 17278 1 180.0000771 15.1670000 2
17275 17279 17277 17278 4 180.0000771 4.6024000 2
17283 17284 17285 17286 1 180.0000771 15.1670000 2
17283 17284 17285 17287 1 180.0000771 15.1670000 2
17286 17284 17285 17287 4 180.0000771 4.6024000 2
17283 17284 17293 17285 4 180.0000771 4.6024000 2
17283 17284 17293 17291 1 180.0000771 15.1670000 2
17283 17284 17293 17294 1 180.0000771 15.1670000 2
17285 17284 17293 17291 1 180.0000771 15.1670000 2
17285 17284 17293 17294 1 180.0000771 15.1670000 2
17286 17285 17284 17293 1 180.0000771 15.1670000 2
17287 17285 17284 17293 1 180.0000771 15.1670000 2
17284 17285 17287 17288 1 180.0000771 15.1670000 2
17284 17285 17287 17289 1 180.0000771 15.1670000 2
17286 17285 17287 17288 1 180.0000771 15.1670000 2
17286 17285 17287 17289 1 180.0000771 15.1670000 2
17285 17287 17289 17290 1 180.0000771 15.1670000 2
17285 17287 17289 17291 1 180.0000771 15.1670000 2
17288 17287 17289 17290 1 180.0000771 15.1670000 2
17288 17287 17289 17291 1 180.0000771 15.1670000 2
17285 17289 17287 17288 4 180.0000771 4.6024000 2
17287 17289 17291 17292 1 180.0000771 15.1670000 2
17287 17289 17291 17293 1 180.0000771 15.1670000 2
17290 17289 17291 17292 1 180.0000771 15.1670000 2
17290 17289 17291 17293 1 180.0000771 15.1670000 2
17287 17291 17289 17290 4 180.0000771 4.6024000 2
17284 17291 17293 17294 4 180.0000771 4.6024000 2
17289 17291 17293 17294 1 180.0000771 15.1670000 2
17292 17291 17293 17294 1 180.0000771 15.1670000 2
17284 17293 17291 17289 1 180.0000771 15.1670000 2
17284 17293 17291 17292 1 180.0000771 15.1670000 2
17289 17293 17291 17292 4 180.0000771 4.6024000 2
17297 17298 17299 17300 1 180.0000771 15.1670000 2
17297 17298 17299 17301 1 180.0000771 15.1670000 2
17300 17298 17299 17301 4 180.0000771 4.6024000 2
17297 17298 17307 17299 4 180.0000771 4.6024000 2
17297 17298 17307 17305 1 180.0000771 15.1670000 2
17297 17298 17307 17308 1 180.0000771 15.1670000 2
17299 17298 17307 17305 1 180.0000771 15.1670000 2
17299 17298 17307 17308 1 180.0000771 15.1670000 2
17300 17299 17298 17307 1 180.0000771 15.1670000 2
17301 17299 17298 17307 1 180.0000771 15.1670000 2
17298 17299 17301 17302 1 180.0000771 15.1670000 2
17298 17299 17301 17303 1 180.0000771 15.1670000 2
17300 17299 17301 17302 1 180.0000771 15.1670000 2
17300 17299 17301 17303 1 180.0000771 15.1670000 2
17299 17301 17303 17304 1 180.0000771 15.1670000 2
17299 17301 17303 17305 1 180.0000771 15.1670000 2
17302 17301 17303 17304 1 180.0000771 15.1670000 2
17302 17301 17303 17305 1 180.0000771 15.1670000 2
17299 17303 17301 17302 4 180.0000771 4.6024000 2
17301 17303 17305 17306 1 180.0000771 15.1670000 2
17301 17303 17305 17307 1 180.0000771 15.1670000 2
17304 17303 17305 17306 1 180.0000771 15.1670000 2
17304 17303 17305 17307 1 180.0000771 15.1670000 2
17301 17305 17303 17304 4 180.0000771 4.6024000 2
17298 17305 17307 17308 4 180.0000771 4.6024000 2
17303 17305 17307 17308 1 180.0000771 15.1670000 2
17306 17305 17307 17308 1 180.0000771 15.1670000 2
17298 17307 17305 17303 1 180.0000771 15.1670000 2
17298 17307 17305 17306 1 180.0000771 15.1670000 2
17303 17307 17305 17306 4 180.0000771 4.6024000 2
17311 17312 17313 17314 1 180.0000771 15.1670000 2
17311 17312 17313 17315 1 180.0000771 15.1670000 2
17314 17312 17313 17315 4 180.0000771 4.6024000 2
17311 17312 17321 17313 4 180.0000771 4.6024000 2
17311 17312 17321 17319 1 180.0000771 15.1670000 2
17311 17312 17321 17322 1 180.0000771 15.1670000 2
17313 17312 17321 17319 1 180.0000771 15.1670000 2
17313 17312 17321 17322 1 180.0000771 15.1670000 2
17314 17313 17312 17321 1 180.0000771 15.1670000 2
17315 17313 17312 17321 1 180.0000771 15.1670000 2
17312 17313 17315 17316 1 180.0000771 15.1670000 2
17312 17313 17315 17317 1 180.0000771 15.1670000 2
17314 17313 17315 17316 1 180.0000771 15.1670000 2
17314 17313 17315 17317 1 180.0000771 15.1670000 2
17313 17315 17317 17318 1 180.0000771 15.1670000 2
17313 17315 17317 17319 1 180.0000771 15.1670000 2
17316 17315 17317 17318 1 180.0000771 15.1670000 2
17316 17315 17317 17319 1 180.0000771 15.1670000 2
17313 17317 17315 17316 4 180.0000771 4.6024000 2
17315 17317 17319 17320 1 180.0000771 15.1670000 2
17315 17317 17319 17321 1 180.0000771 15.1670000 2
17318 17317 17319 17320 1 180.0000771 15.1670000 2
17318 17317 17319 17321 1 180.0000771 15.1670000 2
17315 17319 17317 17318 4 180.0000771 4.6024000 2
17312 17319 17321 17322 4 180.0000771 4.6024000 2
17317 17319 17321 17322 1 180.0000771 15.1670000 2
17320 17319 17321 17322 1 180.0000771 15.1670000 2
17312 17321 17319 17317 1 180.0000771 15.1670000 2
17312 17321 17319 17320 1 180.0000771 15.1670000 2
17317 17321 17319 17320 4 180.0000771 4.6024000 2
17325 17326 17327 17328 1 180.0000771 15.1670000 2
17325 17326 17327 17329 1 180.0000771 15.1670000 2
17328 17326 17327 17329 4 180.0000771 4.6024000 2
17325 17326 17335 17327 4 180.0000771 4.6024000 2
17325 17326 17335 17333 1 180.0000771 15.1670000 2
17325 17326 17335 17336 1 180.0000771 15.1670000 2
17327 17326 17335 17333 1 180.0000771 15.1670000 2
17327 17326 17335 17336 1 180.0000771 15.1670000 2
17328 17327 17326 17335 1 180.0000771 15.1670000 2
17329 17327 17326 17335 1 180.0000771 15.1670000 2
17326 17327 17329 17330 1 180.0000771 15.1670000 2
17326 17327 17329 17331 1 180.0000771 15.1670000 2
17328 17327 17329 17330 1 180.0000771 15.1670000 2
17328 17327 17329 17331 1 180.0000771 15.1670000 2
17327 17329 17331 17332 1 180.0000771 15.1670000 2
17327 17329 17331 17333 1 180.0000771 15.1670000 2
17330 17329 17331 17332 1 180.0000771 15.1670000 2
17330 17329 17331 17333 1 180.0000771 15.1670000 2
17327 17331 17329 17330 4 180.0000771 4.6024000 2
17329 17331 17333 17334 1 180.0000771 15.1670000 2
17329 17331 17333 17335 1 180.0000771 15.1670000 2
17332 17331 17333 17334 1 180.0000771 15.1670000 2
17332 17331 17333 17335 1 180.0000771 15.1670000 2
17329 17333 17331 17332 4 180.0000771 4.6024000 2
17326 17333 17335 17336 4 180.0000771 4.6024000 2
17331 17333 17335 17336 1 180.0000771 15.1670000 2
17334 17333 17335 17336 1 180.0000771 15.1670000 2
17326 17335 17333 17331 1 180.0000771 15.1670000 2
17326 17335 17333 17334 1 180.0000771 15.1670000 2
17331 17335 17333 17334 4 180.0000771 4.6024000 2
17339 17340 17341 17342 1 180.0000771 15.1670000 2
17339 17340 17341 17343 1 180.0000771 15.1670000 2
17342 17340 17341 17343 4 180.0000771 4.6024000 2
17339 17340 17349 17341 4 180.0000771 4.6024000 2
17339 17340 17349 17347 1 180.0000771 15.1670000 2
17339 17340 17349 17350 1 180.0000771 15.1670000 2
17341 17340 17349 17347 1 180.0000771 15.1670000 2
17341 17340 17349 17350 1 180.0000771 15.1670000 2
17342 17341 17340 17349 1 180.0000771 15.1670000 2
17343 17341 17340 17349 1 180.0000771 15.1670000 2
17340 17341 17343 17344 1 180.0000771 15.1670000 2
17340 17341 17343 17345 1 180.0000771 15.1670000 2
17342 17341 17343 17344 1 180.0000771 15.1670000 2
17342 17341 17343 17345 1 180.0000771 15.1670000 2
17341 17343 17345 17346 1 180.0000771 15.1670000 2
17341 17343 17345 17347 1 180.0000771 15.1670000 2
17344 17343 17345 17346 1 180.0000771 15.1670000 2
17344 17343 17345 17347 1 180.0000771 15.1670000 2
17341 17345 17343 17344 4 180.0000771 4.6024000 2
17343 17345 17347 17348 1 180.0000771 15.1670000 2
17343 17345 17347 17349 1 180.0000771 15.1670000 2
17346 17345 17347 17348 1 180.0000771 15.1670000 2
17346 17345 17347 17349 1 180.0000771 15.1670000 2
17343 17347 17345 17346 4 180.0000771 4.6024000 2
17340 17347 17349 17350 4 180.0000771 4.6024000 2
17345 17347 17349 17350 1 180.0000771 15.1670000 2
17348 17347 17349 17350 1 180.0000771 15.1670000 2
17340 17349 17347 17345 1 180.0000771 15.1670000 2
17340 17349 17347 17348 1 180.0000771 15.1670000 2
17345 17349 17347 17348 4 180.0000771 4.6024000 2
17353 17354 17355 17356 1 180.0000771 15.1670000 2
17353 17354 17355 17357 1 180.0000771 15.1670000 2
17356 17354 17355 17357 4 180.0000771 4.6024000 2
17353 17354 17363 17355 4 180.0000771 4.6024000 2
17353 17354 17363 17361 1 180.0000771 15.1670000 2
17353 17354 17363 17364 1 180.0000771 15.1670000 2
17355 17354 17363 17361 1 180.0000771 15.1670000 2
17355 17354 17363 17364 1 180.0000771 15.1670000 2
17356 17355 17354 17363 1 180.0000771 15.1670000 2
17357 17355 17354 17363 1 180.0000771 15.1670000 2
17354 17355 17357 17358 1 180.0000771 15.1670000 2
17354 17355 17357 17359 1 180.0000771 15.1670000 2
17356 17355 17357 17358 1 180.0000771 15.1670000 2
17356 17355 17357 17359 1 180.0000771 15.1670000 2
17355 17357 17359 17360 1 180.0000771 15.1670000 2
17355 17357 17359 17361 1 180.0000771 15.1670000 2
17358 17357 17359 17360 1 180.0000771 15.1670000 2
17358 17357 17359 17361 1 180.0000771 15.1670000 2
17355 17359 17357 17358 4 180.0000771 4.6024000 2
17357 17359 17361 17362 1 180.0000771 15.1670000 2
17357 17359 17361 17363 1 180.0000771 15.1670000 2
17360 17359 17361 17362 1 180.0000771 15.1670000 2
17360 17359 17361 17363 1 180.0000771 15.1670000 2
17357 17361 17359 17360 4 180.0000771 4.6024000 2
17354 17361 17363 17364 4 180.0000771 4.6024000 2
17359 17361 17363 17364 1 180.0000771 15.1670000 2
17362 17361 17363 17364 1 180.0000771 15.1670000 2
17354 17363 17361 17359 1 180.0000771 15.1670000 2
17354 17363 17361 17362 1 180.0000771 15.1670000 2
17359 17363 17361 17362 4 180.0000771 4.6024000 2
17367 17368 17369 17370 1 180.0000771 15.1670000 2
17367 17368 17369 17371 1 180.0000771 15.1670000 2
17370 17368 17369 17371 4 180.0000771 4.6024000 2
17367 17368 17377 17369 4 180.0000771 4.6024000 2
17367 17368 17377 17375 1 180.0000771 15.1670000 2
17367 17368 17377 17378 1 180.0000771 15.1670000 2
17369 17368 17377 17375 1 180.0000771 15.1670000 2
17369 17368 17377 17378 1 180.0000771 15.1670000 2
17370 17369 17368 17377 1 180.0000771 15.1670000 2
17371 17369 17368 17377 1 180.0000771 15.1670000 2
17368 17369 17371 17372 1 180.0000771 15.1670000 2
17368 17369 17371 17373 1 180.0000771 15.1670000 2
17370 17369 17371 17372 1 180.0000771 15.1670000 2
17370 17369 17371 17373 1 180.0000771 15.1670000 2
17369 17371 17373 17374 1 180.0000771 15.1670000 2
17369 17371 17373 17375 1 180.0000771 15.1670000 2
17372 17371 17373 17374 1 180.0000771 15.1670000 2
17372 17371 17373 17375 1 180.0000771 15.1670000 2
17369 17373 17371 17372 4 180.0000771 4.6024000 2
17371 17373 17375 17376 1 180.0000771 15.1670000 2
17371 17373 17375 17377 1 180.0000771 15.1670000 2
17374 17373 17375 17376 1 180.0000771 15.1670000 2
17374 17373 17375 17377 1 180.0000771 15.1670000 2
17371 17375 17373 17374 4 180.0000771 4.6024000 2
17368 17375 17377 17378 4 180.0000771 4.6024000 2
17373 17375 17377 17378 1 180.0000771 15.1670000 2
17376 17375 17377 17378 1 180.0000771 15.1670000 2
17368 17377 17375 17373 1 180.0000771 15.1670000 2
17368 17377 17375 17376 1 180.0000771 15.1670000 2
17373 17377 17375 17376 4 180.0000771 4.6024000 2
17381 17382 17383 17384 1 180.0000771 15.1670000 2
17381 17382 17383 17385 1 180.0000771 15.1670000 2
17384 17382 17383 17385 4 180.0000771 4.6024000 2
17381 17382 17391 17383 4 180.0000771 4.6024000 2
17381 17382 17391 17389 1 180.0000771 15.1670000 2
17381 17382 17391 17392 1 180.0000771 15.1670000 2
17383 17382 17391 17389 1 180.0000771 15.1670000 2
17383 17382 17391 17392 1 180.0000771 15.1670000 2
17384 17383 17382 17391 1 180.0000771 15.1670000 2
17385 17383 17382 17391 1 180.0000771 15.1670000 2
17382 17383 17385 17386 1 180.0000771 15.1670000 2
17382 17383 17385 17387 1 180.0000771 15.1670000 2
17384 17383 17385 17386 1 180.0000771 15.1670000 2
17384 17383 17385 17387 1 180.0000771 15.1670000 2
17383 17385 17387 17388 1 180.0000771 15.1670000 2
17383 17385 17387 17389 1 180.0000771 15.1670000 2
17386 17385 17387 17388 1 180.0000771 15.1670000 2
17386 17385 17387 17389 1 180.0000771 15.1670000 2
17383 17387 17385 17386 4 180.0000771 4.6024000 2
17385 17387 17389 17390 1 180.0000771 15.1670000 2
17385 17387 17389 17391 1 180.0000771 15.1670000 2
17388 17387 17389 17390 1 180.0000771 15.1670000 2
17388 17387 17389 17391 1 180.0000771 15.1670000 2
17385 17389 17387 17388 4 180.0000771 4.6024000 2
17382 17389 17391 17392 4 180.0000771 4.6024000 2
17387 17389 17391 17392 1 180.0000771 15.1670000 2
17390 17389 17391 17392 1 180.0000771 15.1670000 2
17382 17391 17389 17387 1 180.0000771 15.1670000 2
17382 17391 17389 17390 1 180.0000771 15.1670000 2
17387 17391 17389 17390 4 180.0000771 4.6024000 2
17395 17396 17397 17398 1 180.0000771 15.1670000 2
17395 17396 17397 17399 1 180.0000771 15.1670000 2
17398 17396 17397 17399 4 180.0000771 4.6024000 2
17395 17396 17405 17397 4 180.0000771 4.6024000 2
17395 17396 17405 17403 1 180.0000771 15.1670000 2
17395 17396 17405 17406 1 180.0000771 15.1670000 2
17397 17396 17405 17403 1 180.0000771 15.1670000 2
17397 17396 17405 17406 1 180.0000771 15.1670000 2
17398 17397 17396 17405 1 180.0000771 15.1670000 2
17399 17397 17396 17405 1 180.0000771 15.1670000 2
17396 17397 17399 17400 1 180.0000771 15.1670000 2
17396 17397 17399 17401 1 180.0000771 15.1670000 2
17398 17397 17399 17400 1 180.0000771 15.1670000 2
17398 17397 17399 17401 1 180.0000771 15.1670000 2
17397 17399 17401 17402 1 180.0000771 15.1670000 2
17397 17399 17401 17403 1 180.0000771 15.1670000 2
17400 17399 17401 17402 1 180.0000771 15.1670000 2
17400 17399 17401 17403 1 180.0000771 15.1670000 2
17397 17401 17399 17400 4 180.0000771 4.6024000 2
17399 17401 17403 17404 1 180.0000771 15.1670000 2
17399 17401 17403 17405 1 180.0000771 15.1670000 2
17402 17401 17403 17404 1 180.0000771 15.1670000 2
17402 17401 17403 17405 1 180.0000771 15.1670000 2
17399 17403 17401 17402 4 180.0000771 4.6024000 2
17396 17403 17405 17406 4 180.0000771 4.6024000 2
17401 17403 17405 17406 1 180.0000771 15.1670000 2
17404 17403 17405 17406 1 180.0000771 15.1670000 2
17396 17405 17403 17401 1 180.0000771 15.1670000 2
17396 17405 17403 17404 1 180.0000771 15.1670000 2
17401 17405 17403 17404 4 180.0000771 4.6024000 2
17409 17410 17411 17412 1 180.0000771 15.1670000 2
17409 17410 17411 17413 1 180.0000771 15.1670000 2
17412 17410 17411 17413 4 180.0000771 4.6024000 2
17409 17410 17419 17411 4 180.0000771 4.6024000 2
17409 17410 17419 17417 1 180.0000771 15.1670000 2
17409 17410 17419 17420 1 180.0000771 15.1670000 2
17411 17410 17419 17417 1 180.0000771 15.1670000 2
17411 17410 17419 17420 1 180.0000771 15.1670000 2
17412 17411 17410 17419 1 180.0000771 15.1670000 2
17413 17411 17410 17419 1 180.0000771 15.1670000 2
17410 17411 17413 17414 1 180.0000771 15.1670000 2
17410 17411 17413 17415 1 180.0000771 15.1670000 2
17412 17411 17413 17414 1 180.0000771 15.1670000 2
17412 17411 17413 17415 1 180.0000771 15.1670000 2
17411 17413 17415 17416 1 180.0000771 15.1670000 2
17411 17413 17415 17417 1 180.0000771 15.1670000 2
17414 17413 17415 17416 1 180.0000771 15.1670000 2
17414 17413 17415 17417 1 180.0000771 15.1670000 2
17411 17415 17413 17414 4 180.0000771 4.6024000 2
17413 17415 17417 17418 1 180.0000771 15.1670000 2
17413 17415 17417 17419 1 180.0000771 15.1670000 2
17416 17415 17417 17418 1 180.0000771 15.1670000 2
17416 17415 17417 17419 1 180.0000771 15.1670000 2
17413 17417 17415 17416 4 180.0000771 4.6024000 2
17410 17417 17419 17420 4 180.0000771 4.6024000 2
17415 17417 17419 17420 1 180.0000771 15.1670000 2
17418 17417 17419 17420 1 180.0000771 15.1670000 2
17410 17419 17417 17415 1 180.0000771 15.1670000 2
17410 17419 17417 17418 1 180.0000771 15.1670000 2
17415 17419 17417 17418 4 180.0000771 4.6024000 2
17423 17424 17425 17426 1 180.0000771 15.1670000 2
17423 17424 17425 17427 1 180.0000771 15.1670000 2
17426 17424 17425 17427 4 180.0000771 4.6024000 2
17423 17424 17433 17425 4 180.0000771 4.6024000 2
17423 17424 17433 17431 1 180.0000771 15.1670000 2
17423 17424 17433 17434 1 180.0000771 15.1670000 2
17425 17424 17433 17431 1 180.0000771 15.1670000 2
17425 17424 17433 17434 1 180.0000771 15.1670000 2
17426 17425 17424 17433 1 180.0000771 15.1670000 2
17427 17425 17424 17433 1 180.0000771 15.1670000 2
17424 17425 17427 17428 1 180.0000771 15.1670000 2
17424 17425 17427 17429 1 180.0000771 15.1670000 2
17426 17425 17427 17428 1 180.0000771 15.1670000 2
17426 17425 17427 17429 1 180.0000771 15.1670000 2
17425 17427 17429 17430 1 180.0000771 15.1670000 2
17425 17427 17429 17431 1 180.0000771 15.1670000 2
17428 17427 17429 17430 1 180.0000771 15.1670000 2
17428 17427 17429 17431 1 180.0000771 15.1670000 2
17425 17429 17427 17428 4 180.0000771 4.6024000 2
17427 17429 17431 17432 1 180.0000771 15.1670000 2
17427 17429 17431 17433 1 180.0000771 15.1670000 2
17430 17429 17431 17432 1 180.0000771 15.1670000 2
17430 17429 17431 17433 1 180.0000771 15.1670000 2
17427 17431 17429 17430 4 180.0000771 4.6024000 2
17424 17431 17433 17434 4 180.0000771 4.6024000 2
17429 17431 17433 17434 1 180.0000771 15.1670000 2
17432 17431 17433 17434 1 180.0000771 15.1670000 2
17424 17433 17431 17429 1 180.0000771 15.1670000 2
17424 17433 17431 17432 1 180.0000771 15.1670000 2
17429 17433 17431 17432 4 180.0000771 4.6024000 2
17437 17438 17439 17440 1 180.0000771 15.1670000 2
17437 17438 17439 17441 1 180.0000771 15.1670000 2
17440 17438 17439 17441 4 180.0000771 4.6024000 2
17437 17438 17447 17439 4 180.0000771 4.6024000 2
17437 17438 17447 17445 1 180.0000771 15.1670000 2
17437 17438 17447 17448 1 180.0000771 15.1670000 2
17439 17438 17447 17445 1 180.0000771 15.1670000 2
17439 17438 17447 17448 1 180.0000771 15.1670000 2
17440 17439 17438 17447 1 180.0000771 15.1670000 2
17441 17439 17438 17447 1 180.0000771 15.1670000 2
17438 17439 17441 17442 1 180.0000771 15.1670000 2
17438 17439 17441 17443 1 180.0000771 15.1670000 2
17440 17439 17441 17442 1 180.0000771 15.1670000 2
17440 17439 17441 17443 1 180.0000771 15.1670000 2
17439 17441 17443 17444 1 180.0000771 15.1670000 2
17439 17441 17443 17445 1 180.0000771 15.1670000 2
17442 17441 17443 17444 1 180.0000771 15.1670000 2
17442 17441 17443 17445 1 180.0000771 15.1670000 2
17439 17443 17441 17442 4 180.0000771 4.6024000 2
17441 17443 17445 17446 1 180.0000771 15.1670000 2
17441 17443 17445 17447 1 180.0000771 15.1670000 2
17444 17443 17445 17446 1 180.0000771 15.1670000 2
17444 17443 17445 17447 1 180.0000771 15.1670000 2
17441 17445 17443 17444 4 180.0000771 4.6024000 2
17438 17445 17447 17448 4 180.0000771 4.6024000 2
17443 17445 17447 17448 1 180.0000771 15.1670000 2
17446 17445 17447 17448 1 180.0000771 15.1670000 2
17438 17447 17445 17443 1 180.0000771 15.1670000 2
17438 17447 17445 17446 1 180.0000771 15.1670000 2
17443 17447 17445 17446 4 180.0000771 4.6024000 2
17451 17452 17453 17454 1 180.0000771 15.1670000 2
17451 17452 17453 17455 1 180.0000771 15.1670000 2
17454 17452 17453 17455 4 180.0000771 4.6024000 2
17451 17452 17461 17453 4 180.0000771 4.6024000 2
17451 17452 17461 17459 1 180.0000771 15.1670000 2
17451 17452 17461 17462 1 180.0000771 15.1670000 2
17453 17452 17461 17459 1 180.0000771 15.1670000 2
17453 17452 17461 17462 1 180.0000771 15.1670000 2
17454 17453 17452 17461 1 180.0000771 15.1670000 2
17455 17453 17452 17461 1 180.0000771 15.1670000 2
17452 17453 17455 17456 1 180.0000771 15.1670000 2
17452 17453 17455 17457 1 180.0000771 15.1670000 2
17454 17453 17455 17456 1 180.0000771 15.1670000 2
17454 17453 17455 17457 1 180.0000771 15.1670000 2
17453 17455 17457 17458 1 180.0000771 15.1670000 2
17453 17455 17457 17459 1 180.0000771 15.1670000 2
17456 17455 17457 17458 1 180.0000771 15.1670000 2
17456 17455 17457 17459 1 180.0000771 15.1670000 2
17453 17457 17455 17456 4 180.0000771 4.6024000 2
17455 17457 17459 17460 1 180.0000771 15.1670000 2
17455 17457 17459 17461 1 180.0000771 15.1670000 2
17458 17457 17459 17460 1 180.0000771 15.1670000 2
17458 17457 17459 17461 1 180.0000771 15.1670000 2
17455 17459 17457 17458 4 180.0000771 4.6024000 2
17452 17459 17461 17462 4 180.0000771 4.6024000 2
17457 17459 17461 17462 1 180.0000771 15.1670000 2
17460 17459 17461 17462 1 180.0000771 15.1670000 2
17452 17461 17459 17457 1 180.0000771 15.1670000 2
17452 17461 17459 17460 1 180.0000771 15.1670000 2
17457 17461 17459 17460 4 180.0000771 4.6024000 2
17465 17466 17467 17468 1 180.0000771 15.1670000 2
17465 17466 17467 17469 1 180.0000771 15.1670000 2
17468 17466 17467 17469 4 180.0000771 4.6024000 2
17465 17466 17475 17467 4 180.0000771 4.6024000 2
17465 17466 17475 17473 1 180.0000771 15.1670000 2
17465 17466 17475 17476 1 180.0000771 15.1670000 2
17467 17466 17475 17473 1 180.0000771 15.1670000 2
17467 17466 17475 17476 1 180.0000771 15.1670000 2
17468 17467 17466 17475 1 180.0000771 15.1670000 2
17469 17467 17466 17475 1 180.0000771 15.1670000 2
17466 17467 17469 17470 1 180.0000771 15.1670000 2
17466 17467 17469 17471 1 180.0000771 15.1670000 2
17468 17467 17469 17470 1 180.0000771 15.1670000 2
17468 17467 17469 17471 1 180.0000771 15.1670000 2
17467 17469 17471 17472 1 180.0000771 15.1670000 2
17467 17469 17471 17473 1 180.0000771 15.1670000 2
17470 17469 17471 17472 1 180.0000771 15.1670000 2
17470 17469 17471 17473 1 180.0000771 15.1670000 2
17467 17471 17469 17470 4 180.0000771 4.6024000 2
17469 17471 17473 17474 1 180.0000771 15.1670000 2
17469 17471 17473 17475 1 180.0000771 15.1670000 2
17472 17471 17473 17474 1 180.0000771 15.1670000 2
17472 17471 17473 17475 1 180.0000771 15.1670000 2
17469 17473 17471 17472 4 180.0000771 4.6024000 2
17466 17473 17475 17476 4 180.0000771 4.6024000 2
17471 17473 17475 17476 1 180.0000771 15.1670000 2
17474 17473 17475 17476 1 180.0000771 15.1670000 2
17466 17475 17473 17471 1 180.0000771 15.1670000 2
17466 17475 17473 17474 1 180.0000771 15.1670000 2
17471 17475 17473 17474 4 180.0000771 4.6024000 2
17479 17480 17481 17482 1 180.0000771 15.1670000 2
17479 17480 17481 17483 1 180.0000771 15.1670000 2
17482 17480 17481 17483 4 180.0000771 4.6024000 2
17479 17480 17489 17481 4 180.0000771 4.6024000 2
17479 17480 17489 17487 1 180.0000771 15.1670000 2
17479 17480 17489 17490 1 180.0000771 15.1670000 2
17481 17480 17489 17487 1 180.0000771 15.1670000 2
17481 17480 17489 17490 1 180.0000771 15.1670000 2
17482 17481 17480 17489 1 180.0000771 15.1670000 2
17483 17481 17480 17489 1 180.0000771 15.1670000 2
17480 17481 17483 17484 1 180.0000771 15.1670000 2
17480 17481 17483 17485 1 180.0000771 15.1670000 2
17482 17481 17483 17484 1 180.0000771 15.1670000 2
17482 17481 17483 17485 1 180.0000771 15.1670000 2
17481 17483 17485 17486 1 180.0000771 15.1670000 2
17481 17483 17485 17487 1 180.0000771 15.1670000 2
17484 17483 17485 17486 1 180.0000771 15.1670000 2
17484 17483 17485 17487 1 180.0000771 15.1670000 2
17481 17485 17483 17484 4 180.0000771 4.6024000 2
17483 17485 17487 17488 1 180.0000771 15.1670000 2
17483 17485 17487 17489 1 180.0000771 15.1670000 2
17486 17485 17487 17488 1 180.0000771 15.1670000 2
17486 17485 17487 17489 1 180.0000771 15.1670000 2
17483 17487 17485 17486 4 180.0000771 4.6024000 2
17480 17487 17489 17490 4 180.0000771 4.6024000 2
17485 17487 17489 17490 1 180.0000771 15.1670000 2
17488 17487 17489 17490 1 180.0000771 15.1670000 2
17480 17489 17487 17485 1 180.0000771 15.1670000 2
17480 17489 17487 17488 1 180.0000771 15.1670000 2
17485 17489 17487 17488 4 180.0000771 4.6024000 2
17493 17494 17495 17496 1 180.0000771 15.1670000 2
17493 17494 17495 17497 1 180.0000771 15.1670000 2
17496 17494 17495 17497 4 180.0000771 4.6024000 2
17493 17494 17503 17495 4 180.0000771 4.6024000 2
17493 17494 17503 17501 1 180.0000771 15.1670000 2
17493 17494 17503 17504 1 180.0000771 15.1670000 2
17495 17494 17503 17501 1 180.0000771 15.1670000 2
17495 17494 17503 17504 1 180.0000771 15.1670000 2
17496 17495 17494 17503 1 180.0000771 15.1670000 2
17497 17495 17494 17503 1 180.0000771 15.1670000 2
17494 17495 17497 17498 1 180.0000771 15.1670000 2
17494 17495 17497 17499 1 180.0000771 15.1670000 2
17496 17495 17497 17498 1 180.0000771 15.1670000 2
17496 17495 17497 17499 1 180.0000771 15.1670000 2
17495 17497 17499 17500 1 180.0000771 15.1670000 2
17495 17497 17499 17501 1 180.0000771 15.1670000 2
17498 17497 17499 17500 1 180.0000771 15.1670000 2
17498 17497 17499 17501 1 180.0000771 15.1670000 2
17495 17499 17497 17498 4 180.0000771 4.6024000 2
17497 17499 17501 17502 1 180.0000771 15.1670000 2
17497 17499 17501 17503 1 180.0000771 15.1670000 2
17500 17499 17501 17502 1 180.0000771 15.1670000 2
17500 17499 17501 17503 1 180.0000771 15.1670000 2
17497 17501 17499 17500 4 180.0000771 4.6024000 2
17494 17501 17503 17504 4 180.0000771 4.6024000 2
17499 17501 17503 17504 1 180.0000771 15.1670000 2
17502 17501 17503 17504 1 180.0000771 15.1670000 2
17494 17503 17501 17499 1 180.0000771 15.1670000 2
17494 17503 17501 17502 1 180.0000771 15.1670000 2
17499 17503 17501 17502 4 180.0000771 4.6024000 2
17507 17508 17509 17510 1 180.0000771 15.1670000 2
17507 17508 17509 17511 1 180.0000771 15.1670000 2
17510 17508 17509 17511 4 180.0000771 4.6024000 2
17507 17508 17517 17509 4 180.0000771 4.6024000 2
17507 17508 17517 17515 1 180.0000771 15.1670000 2
17507 17508 17517 17518 1 180.0000771 15.1670000 2
17509 17508 17517 17515 1 180.0000771 15.1670000 2
17509 17508 17517 17518 1 180.0000771 15.1670000 2
17510 17509 17508 17517 1 180.0000771 15.1670000 2
17511 17509 17508 17517 1 180.0000771 15.1670000 2
17508 17509 17511 17512 1 180.0000771 15.1670000 2
17508 17509 17511 17513 1 180.0000771 15.1670000 2
17510 17509 17511 17512 1 180.0000771 15.1670000 2
17510 17509 17511 17513 1 180.0000771 15.1670000 2
17509 17511 17513 17514 1 180.0000771 15.1670000 2
17509 17511 17513 17515 1 180.0000771 15.1670000 2
17512 17511 17513 17514 1 180.0000771 15.1670000 2
17512 17511 17513 17515 1 180.0000771 15.1670000 2
17509 17513 17511 17512 4 180.0000771 4.6024000 2
17511 17513 17515 17516 1 180.0000771 15.1670000 2
17511 17513 17515 17517 1 180.0000771 15.1670000 2
17514 17513 17515 17516 1 180.0000771 15.1670000 2
17514 17513 17515 17517 1 180.0000771 15.1670000 2
17511 17515 17513 17514 4 180.0000771 4.6024000 2
17508 17515 17517 17518 4 180.0000771 4.6024000 2
17513 17515 17517 17518 1 180.0000771 15.1670000 2
17516 17515 17517 17518 1 180.0000771 15.1670000 2
17508 17517 17515 17513 1 180.0000771 15.1670000 2
17508 17517 17515 17516 1 180.0000771 15.1670000 2
17513 17517 17515 17516 4 180.0000771 4.6024000 2
17521 17522 17523 17524 1 180.0000771 15.1670000 2
17521 17522 17523 17525 1 180.0000771 15.1670000 2
17524 17522 17523 17525 4 180.0000771 4.6024000 2
17521 17522 17531 17523 4 180.0000771 4.6024000 2
17521 17522 17531 17529 1 180.0000771 15.1670000 2
17521 17522 17531 17532 1 180.0000771 15.1670000 2
17523 17522 17531 17529 1 180.0000771 15.1670000 2
17523 17522 17531 17532 1 180.0000771 15.1670000 2
17524 17523 17522 17531 1 180.0000771 15.1670000 2
17525 17523 17522 17531 1 180.0000771 15.1670000 2
17522 17523 17525 17526 1 180.0000771 15.1670000 2
17522 17523 17525 17527 1 180.0000771 15.1670000 2
17524 17523 17525 17526 1 180.0000771 15.1670000 2
17524 17523 17525 17527 1 180.0000771 15.1670000 2
17523 17525 17527 17528 1 180.0000771 15.1670000 2
17523 17525 17527 17529 1 180.0000771 15.1670000 2
17526 17525 17527 17528 1 180.0000771 15.1670000 2
17526 17525 17527 17529 1 180.0000771 15.1670000 2
17523 17527 17525 17526 4 180.0000771 4.6024000 2
17525 17527 17529 17530 1 180.0000771 15.1670000 2
17525 17527 17529 17531 1 180.0000771 15.1670000 2
17528 17527 17529 17530 1 180.0000771 15.1670000 2
17528 17527 17529 17531 1 180.0000771 15.1670000 2
17525 17529 17527 17528 4 180.0000771 4.6024000 2
17522 17529 17531 17532 4 180.0000771 4.6024000 2
17527 17529 17531 17532 1 180.0000771 15.1670000 2
17530 17529 17531 17532 1 180.0000771 15.1670000 2
17522 17531 17529 17527 1 180.0000771 15.1670000 2
17522 17531 17529 17530 1 180.0000771 15.1670000 2
17527 17531 17529 17530 4 180.0000771 4.6024000 2
17535 17536 17537 17538 1 180.0000771 15.1670000 2
17535 17536 17537 17539 1 180.0000771 15.1670000 2
17538 17536 17537 17539 4 180.0000771 4.6024000 2
17535 17536 17545 17537 4 180.0000771 4.6024000 2
17535 17536 17545 17543 1 180.0000771 15.1670000 2
17535 17536 17545 17546 1 180.0000771 15.1670000 2
17537 17536 17545 17543 1 180.0000771 15.1670000 2
17537 17536 17545 17546 1 180.0000771 15.1670000 2
17538 17537 17536 17545 1 180.0000771 15.1670000 2
17539 17537 17536 17545 1 180.0000771 15.1670000 2
17536 17537 17539 17540 1 180.0000771 15.1670000 2
17536 17537 17539 17541 1 180.0000771 15.1670000 2
17538 17537 17539 17540 1 180.0000771 15.1670000 2
17538 17537 17539 17541 1 180.0000771 15.1670000 2
17537 17539 17541 17542 1 180.0000771 15.1670000 2
17537 17539 17541 17543 1 180.0000771 15.1670000 2
17540 17539 17541 17542 1 180.0000771 15.1670000 2
17540 17539 17541 17543 1 180.0000771 15.1670000 2
17537 17541 17539 17540 4 180.0000771 4.6024000 2
17539 17541 17543 17544 1 180.0000771 15.1670000 2
17539 17541 17543 17545 1 180.0000771 15.1670000 2
17542 17541 17543 17544 1 180.0000771 15.1670000 2
17542 17541 17543 17545 1 180.0000771 15.1670000 2
17539 17543 17541 17542 4 180.0000771 4.6024000 2
17536 17543 17545 17546 4 180.0000771 4.6024000 2
17541 17543 17545 17546 1 180.0000771 15.1670000 2
17544 17543 17545 17546 1 180.0000771 15.1670000 2
17536 17545 17543 17541 1 180.0000771 15.1670000 2
17536 17545 17543 17544 1 180.0000771 15.1670000 2
17541 17545 17543 17544 4 180.0000771 4.6024000 2
17549 17550 17551 17552 1 180.0000771 15.1670000 2
17549 17550 17551 17553 1 180.0000771 15.1670000 2
17552 17550 17551 17553 4 180.0000771 4.6024000 2
17549 17550 17559 17551 4 180.0000771 4.6024000 2
17549 17550 17559 17557 1 180.0000771 15.1670000 2
17549 17550 17559 17560 1 180.0000771 15.1670000 2
17551 17550 17559 17557 1 180.0000771 15.1670000 2
17551 17550 17559 17560 1 180.0000771 15.1670000 2
17552 17551 17550 17559 1 180.0000771 15.1670000 2
17553 17551 17550 17559 1 180.0000771 15.1670000 2
17550 17551 17553 17554 1 180.0000771 15.1670000 2
17550 17551 17553 17555 1 180.0000771 15.1670000 2
17552 17551 17553 17554 1 180.0000771 15.1670000 2
17552 17551 17553 17555 1 180.0000771 15.1670000 2
17551 17553 17555 17556 1 180.0000771 15.1670000 2
17551 17553 17555 17557 1 180.0000771 15.1670000 2
17554 17553 17555 17556 1 180.0000771 15.1670000 2
17554 17553 17555 17557 1 180.0000771 15.1670000 2
17551 17555 17553 17554 4 180.0000771 4.6024000 2
17553 17555 17557 17558 1 180.0000771 15.1670000 2
17553 17555 17557 17559 1 180.0000771 15.1670000 2
17556 17555 17557 17558 1 180.0000771 15.1670000 2
17556 17555 17557 17559 1 180.0000771 15.1670000 2
17553 17557 17555 17556 4 180.0000771 4.6024000 2
17550 17557 17559 17560 4 180.0000771 4.6024000 2
17555 17557 17559 17560 1 180.0000771 15.1670000 2
17558 17557 17559 17560 1 180.0000771 15.1670000 2
17550 17559 17557 17555 1 180.0000771 15.1670000 2
17550 17559 17557 17558 1 180.0000771 15.1670000 2
17555 17559 17557 17558 4 180.0000771 4.6024000 2
17563 17564 17565 17566 1 180.0000771 15.1670000 2
17563 17564 17565 17567 1 180.0000771 15.1670000 2
17566 17564 17565 17567 4 180.0000771 4.6024000 2
17563 17564 17573 17565 4 180.0000771 4.6024000 2
17563 17564 17573 17571 1 180.0000771 15.1670000 2
17563 17564 17573 17574 1 180.0000771 15.1670000 2
17565 17564 17573 17571 1 180.0000771 15.1670000 2
17565 17564 17573 17574 1 180.0000771 15.1670000 2
17566 17565 17564 17573 1 180.0000771 15.1670000 2
17567 17565 17564 17573 1 180.0000771 15.1670000 2
17564 17565 17567 17568 1 180.0000771 15.1670000 2
17564 17565 17567 17569 1 180.0000771 15.1670000 2
17566 17565 17567 17568 1 180.0000771 15.1670000 2
17566 17565 17567 17569 1 180.0000771 15.1670000 2
17565 17567 17569 17570 1 180.0000771 15.1670000 2
17565 17567 17569 17571 1 180.0000771 15.1670000 2
17568 17567 17569 17570 1 180.0000771 15.1670000 2
17568 17567 17569 17571 1 180.0000771 15.1670000 2
17565 17569 17567 17568 4 180.0000771 4.6024000 2
17567 17569 17571 17572 1 180.0000771 15.1670000 2
17567 17569 17571 17573 1 180.0000771 15.1670000 2
17570 17569 17571 17572 1 180.0000771 15.1670000 2
17570 17569 17571 17573 1 180.0000771 15.1670000 2
17567 17571 17569 17570 4 180.0000771 4.6024000 2
17564 17571 17573 17574 4 180.0000771 4.6024000 2
17569 17571 17573 17574 1 180.0000771 15.1670000 2
17572 17571 17573 17574 1 180.0000771 15.1670000 2
17564 17573 17571 17569 1 180.0000771 15.1670000 2
17564 17573 17571 17572 1 180.0000771 15.1670000 2
17569 17573 17571 17572 4 180.0000771 4.6024000 2
17577 17578 17579 17580 1 180.0000771 15.1670000 2
17577 17578 17579 17581 1 180.0000771 15.1670000 2
17580 17578 17579 17581 4 180.0000771 4.6024000 2
17577 17578 17587 17579 4 180.0000771 4.6024000 2
17577 17578 17587 17585 1 180.0000771 15.1670000 2
17577 17578 17587 17588 1 180.0000771 15.1670000 2
17579 17578 17587 17585 1 180.0000771 15.1670000 2
17579 17578 17587 17588 1 180.0000771 15.1670000 2
17580 17579 17578 17587 1 180.0000771 15.1670000 2
17581 17579 17578 17587 1 180.0000771 15.1670000 2
17578 17579 17581 17582 1 180.0000771 15.1670000 2
17578 17579 17581 17583 1 180.0000771 15.1670000 2
17580 17579 17581 17582 1 180.0000771 15.1670000 2
17580 17579 17581 17583 1 180.0000771 15.1670000 2
17579 17581 17583 17584 1 180.0000771 15.1670000 2
17579 17581 17583 17585 1 180.0000771 15.1670000 2
17582 17581 17583 17584 1 180.0000771 15.1670000 2
17582 17581 17583 17585 1 180.0000771 15.1670000 2
17579 17583 17581 17582 4 180.0000771 4.6024000 2
17581 17583 17585 17586 1 180.0000771 15.1670000 2
17581 17583 17585 17587 1 180.0000771 15.1670000 2
17584 17583 17585 17586 1 180.0000771 15.1670000 2
17584 17583 17585 17587 1 180.0000771 15.1670000 2
17581 17585 17583 17584 4 180.0000771 4.6024000 2
17578 17585 17587 17588 4 180.0000771 4.6024000 2
17583 17585 17587 17588 1 180.0000771 15.1670000 2
17586 17585 17587 17588 1 180.0000771 15.1670000 2
17578 17587 17585 17583 1 180.0000771 15.1670000 2
17578 17587 17585 17586 1 180.0000771 15.1670000 2
17583 17587 17585 17586 4 180.0000771 4.6024000 2
17591 17592 17593 17594 1 180.0000771 15.1670000 2
17591 17592 17593 17595 1 180.0000771 15.1670000 2
17594 17592 17593 17595 4 180.0000771 4.6024000 2
17591 17592 17601 17593 4 180.0000771 4.6024000 2
17591 17592 17601 17599 1 180.0000771 15.1670000 2
17591 17592 17601 17602 1 180.0000771 15.1670000 2
17593 17592 17601 17599 1 180.0000771 15.1670000 2
17593 17592 17601 17602 1 180.0000771 15.1670000 2
17594 17593 17592 17601 1 180.0000771 15.1670000 2
17595 17593 17592 17601 1 180.0000771 15.1670000 2
17592 17593 17595 17596 1 180.0000771 15.1670000 2
17592 17593 17595 17597 1 180.0000771 15.1670000 2
17594 17593 17595 17596 1 180.0000771 15.1670000 2
17594 17593 17595 17597 1 180.0000771 15.1670000 2
17593 17595 17597 17598 1 180.0000771 15.1670000 2
17593 17595 17597 17599 1 180.0000771 15.1670000 2
17596 17595 17597 17598 1 180.0000771 15.1670000 2
17596 17595 17597 17599 1 180.0000771 15.1670000 2
17593 17597 17595 17596 4 180.0000771 4.6024000 2
17595 17597 17599 17600 1 180.0000771 15.1670000 2
17595 17597 17599 17601 1 180.0000771 15.1670000 2
17598 17597 17599 17600 1 180.0000771 15.1670000 2
17598 17597 17599 17601 1 180.0000771 15.1670000 2
17595 17599 17597 17598 4 180.0000771 4.6024000 2
17592 17599 17601 17602 4 180.0000771 4.6024000 2
17597 17599 17601 17602 1 180.0000771 15.1670000 2
17600 17599 17601 17602 1 180.0000771 15.1670000 2
17592 17601 17599 17597 1 180.0000771 15.1670000 2
17592 17601 17599 17600 1 180.0000771 15.1670000 2
17597 17601 17599 17600 4 180.0000771 4.6024000 2
17605 17606 17607 17608 1 180.0000771 15.1670000 2
17605 17606 17607 17609 1 180.0000771 15.1670000 2
17608 17606 17607 17609 4 180.0000771 4.6024000 2
17605 17606 17615 17607 4 180.0000771 4.6024000 2
17605 17606 17615 17613 1 180.0000771 15.1670000 2
17605 17606 17615 17616 1 180.0000771 15.1670000 2
17607 17606 17615 17613 1 180.0000771 15.1670000 2
17607 17606 17615 17616 1 180.0000771 15.1670000 2
17608 17607 17606 17615 1 180.0000771 15.1670000 2
17609 17607 17606 17615 1 180.0000771 15.1670000 2
17606 17607 17609 17610 1 180.0000771 15.1670000 2
17606 17607 17609 17611 1 180.0000771 15.1670000 2
17608 17607 17609 17610 1 180.0000771 15.1670000 2
17608 17607 17609 17611 1 180.0000771 15.1670000 2
17607 17609 17611 17612 1 180.0000771 15.1670000 2
17607 17609 17611 17613 1 180.0000771 15.1670000 2
17610 17609 17611 17612 1 180.0000771 15.1670000 2
17610 17609 17611 17613 1 180.0000771 15.1670000 2
17607 17611 17609 17610 4 180.0000771 4.6024000 2
17609 17611 17613 17614 1 180.0000771 15.1670000 2
17609 17611 17613 17615 1 180.0000771 15.1670000 2
17612 17611 17613 17614 1 180.0000771 15.1670000 2
17612 17611 17613 17615 1 180.0000771 15.1670000 2
17609 17613 17611 17612 4 180.0000771 4.6024000 2
17606 17613 17615 17616 4 180.0000771 4.6024000 2
17611 17613 17615 17616 1 180.0000771 15.1670000 2
17614 17613 17615 17616 1 180.0000771 15.1670000 2
17606 17615 17613 17611 1 180.0000771 15.1670000 2
17606 17615 17613 17614 1 180.0000771 15.1670000 2
17611 17615 17613 17614 4 180.0000771 4.6024000 2
17619 17620 17621 17622 1 180.0000771 15.1670000 2
17619 17620 17621 17623 1 180.0000771 15.1670000 2
17622 17620 17621 17623 4 180.0000771 4.6024000 2
17619 17620 17629 17621 4 180.0000771 4.6024000 2
17619 17620 17629 17627 1 180.0000771 15.1670000 2
17619 17620 17629 17630 1 180.0000771 15.1670000 2
17621 17620 17629 17627 1 180.0000771 15.1670000 2
17621 17620 17629 17630 1 180.0000771 15.1670000 2
17622 17621 17620 17629 1 180.0000771 15.1670000 2
17623 17621 17620 17629 1 180.0000771 15.1670000 2
17620 17621 17623 17624 1 180.0000771 15.1670000 2
17620 17621 17623 17625 1 180.0000771 15.1670000 2
17622 17621 17623 17624 1 180.0000771 15.1670000 2
17622 17621 17623 17625 1 180.0000771 15.1670000 2
17621 17623 17625 17626 1 180.0000771 15.1670000 2
17621 17623 17625 17627 1 180.0000771 15.1670000 2
17624 17623 17625 17626 1 180.0000771 15.1670000 2
17624 17623 17625 17627 1 180.0000771 15.1670000 2
17621 17625 17623 17624 4 180.0000771 4.6024000 2
17623 17625 17627 17628 1 180.0000771 15.1670000 2
17623 17625 17627 17629 1 180.0000771 15.1670000 2
17626 17625 17627 17628 1 180.0000771 15.1670000 2
17626 17625 17627 17629 1 180.0000771 15.1670000 2
17623 17627 17625 17626 4 180.0000771 4.6024000 2
17620 17627 17629 17630 4 180.0000771 4.6024000 2
17625 17627 17629 17630 1 180.0000771 15.1670000 2
17628 17627 17629 17630 1 180.0000771 15.1670000 2
17620 17629 17627 17625 1 180.0000771 15.1670000 2
17620 17629 17627 17628 1 180.0000771 15.1670000 2
17625 17629 17627 17628 4 180.0000771 4.6024000 2
17633 17634 17635 17636 1 180.0000771 15.1670000 2
17633 17634 17635 17637 1 180.0000771 15.1670000 2
17636 17634 17635 17637 4 180.0000771 4.6024000 2
17633 17634 17643 17635 4 180.0000771 4.6024000 2
17633 17634 17643 17641 1 180.0000771 15.1670000 2
17633 17634 17643 17644 1 180.0000771 15.1670000 2
17635 17634 17643 17641 1 180.0000771 15.1670000 2
17635 17634 17643 17644 1 180.0000771 15.1670000 2
17636 17635 17634 17643 1 180.0000771 15.1670000 2
17637 17635 17634 17643 1 180.0000771 15.1670000 2
17634 17635 17637 17638 1 180.0000771 15.1670000 2
17634 17635 17637 17639 1 180.0000771 15.1670000 2
17636 17635 17637 17638 1 180.0000771 15.1670000 2
17636 17635 17637 17639 1 180.0000771 15.1670000 2
17635 17637 17639 17640 1 180.0000771 15.1670000 2
17635 17637 17639 17641 1 180.0000771 15.1670000 2
17638 17637 17639 17640 1 180.0000771 15.1670000 2
17638 17637 17639 17641 1 180.0000771 15.1670000 2
17635 17639 17637 17638 4 180.0000771 4.6024000 2
17637 17639 17641 17642 1 180.0000771 15.1670000 2
17637 17639 17641 17643 1 180.0000771 15.1670000 2
17640 17639 17641 17642 1 180.0000771 15.1670000 2
17640 17639 17641 17643 1 180.0000771 15.1670000 2
17637 17641 17639 17640 4 180.0000771 4.6024000 2
17634 17641 17643 17644 4 180.0000771 4.6024000 2
17639 17641 17643 17644 1 180.0000771 15.1670000 2
17642 17641 17643 17644 1 180.0000771 15.1670000 2
17634 17643 17641 17639 1 180.0000771 15.1670000 2
17634 17643 17641 17642 1 180.0000771 15.1670000 2
17639 17643 17641 17642 4 180.0000771 4.6024000 2
17647 17648 17649 17650 1 180.0000771 15.1670000 2
17647 17648 17649 17651 1 180.0000771 15.1670000 2
17650 17648 17649 17651 4 180.0000771 4.6024000 2
17647 17648 17657 17649 4 180.0000771 4.6024000 2
17647 17648 17657 17655 1 180.0000771 15.1670000 2
17647 17648 17657 17658 1 180.0000771 15.1670000 2
17649 17648 17657 17655 1 180.0000771 15.1670000 2
17649 17648 17657 17658 1 180.0000771 15.1670000 2
17650 17649 17648 17657 1 180.0000771 15.1670000 2
17651 17649 17648 17657 1 180.0000771 15.1670000 2
17648 17649 17651 17652 1 180.0000771 15.1670000 2
17648 17649 17651 17653 1 180.0000771 15.1670000 2
17650 17649 17651 17652 1 180.0000771 15.1670000 2
17650 17649 17651 17653 1 180.0000771 15.1670000 2
17649 17651 17653 17654 1 180.0000771 15.1670000 2
17649 17651 17653 17655 1 180.0000771 15.1670000 2
17652 17651 17653 17654 1 180.0000771 15.1670000 2
17652 17651 17653 17655 1 180.0000771 15.1670000 2
17649 17653 17651 17652 4 180.0000771 4.6024000 2
17651 17653 17655 17656 1 180.0000771 15.1670000 2
17651 17653 17655 17657 1 180.0000771 15.1670000 2
17654 17653 17655 17656 1 180.0000771 15.1670000 2
17654 17653 17655 17657 1 180.0000771 15.1670000 2
17651 17655 17653 17654 4 180.0000771 4.6024000 2
17648 17655 17657 17658 4 180.0000771 4.6024000 2
17653 17655 17657 17658 1 180.0000771 15.1670000 2
17656 17655 17657 17658 1 180.0000771 15.1670000 2
17648 17657 17655 17653 1 180.0000771 15.1670000 2
17648 17657 17655 17656 1 180.0000771 15.1670000 2
17653 17657 17655 17656 4 180.0000771 4.6024000 2
17661 17662 17663 17664 1 180.0000771 15.1670000 2
17661 17662 17663 17665 1 180.0000771 15.1670000 2
17664 17662 17663 17665 4 180.0000771 4.6024000 2
17661 17662 17671 17663 4 180.0000771 4.6024000 2
17661 17662 17671 17669 1 180.0000771 15.1670000 2
17661 17662 17671 17672 1 180.0000771 15.1670000 2
17663 17662 17671 17669 1 180.0000771 15.1670000 2
17663 17662 17671 17672 1 180.0000771 15.1670000 2
17664 17663 17662 17671 1 180.0000771 15.1670000 2
17665 17663 17662 17671 1 180.0000771 15.1670000 2
17662 17663 17665 17666 1 180.0000771 15.1670000 2
17662 17663 17665 17667 1 180.0000771 15.1670000 2
17664 17663 17665 17666 1 180.0000771 15.1670000 2
17664 17663 17665 17667 1 180.0000771 15.1670000 2
17663 17665 17667 17668 1 180.0000771 15.1670000 2
17663 17665 17667 17669 1 180.0000771 15.1670000 2
17666 17665 17667 17668 1 180.0000771 15.1670000 2
17666 17665 17667 17669 1 180.0000771 15.1670000 2
17663 17667 17665 17666 4 180.0000771 4.6024000 2
17665 17667 17669 17670 1 180.0000771 15.1670000 2
17665 17667 17669 17671 1 180.0000771 15.1670000 2
17668 17667 17669 17670 1 180.0000771 15.1670000 2
17668 17667 17669 17671 1 180.0000771 15.1670000 2
17665 17669 17667 17668 4 180.0000771 4.6024000 2
17662 17669 17671 17672 4 180.0000771 4.6024000 2
17667 17669 17671 17672 1 180.0000771 15.1670000 2
17670 17669 17671 17672 1 180.0000771 15.1670000 2
17662 17671 17669 17667 1 180.0000771 15.1670000 2
17662 17671 17669 17670 1 180.0000771 15.1670000 2
17667 17671 17669 17670 4 180.0000771 4.6024000 2
17675 17676 17677 17678 1 180.0000771 15.1670000 2
17675 17676 17677 17679 1 180.0000771 15.1670000 2
17678 17676 17677 17679 4 180.0000771 4.6024000 2
17675 17676 17685 17677 4 180.0000771 4.6024000 2
17675 17676 17685 17683 1 180.0000771 15.1670000 2
17675 17676 17685 17686 1 180.0000771 15.1670000 2
17677 17676 17685 17683 1 180.0000771 15.1670000 2
17677 17676 17685 17686 1 180.0000771 15.1670000 2
17678 17677 17676 17685 1 180.0000771 15.1670000 2
17679 17677 17676 17685 1 180.0000771 15.1670000 2
17676 17677 17679 17680 1 180.0000771 15.1670000 2
17676 17677 17679 17681 1 180.0000771 15.1670000 2
17678 17677 17679 17680 1 180.0000771 15.1670000 2
17678 17677 17679 17681 1 180.0000771 15.1670000 2
17677 17679 17681 17682 1 180.0000771 15.1670000 2
17677 17679 17681 17683 1 180.0000771 15.1670000 2
17680 17679 17681 17682 1 180.0000771 15.1670000 2
17680 17679 17681 17683 1 180.0000771 15.1670000 2
17677 17681 17679 17680 4 180.0000771 4.6024000 2
17679 17681 17683 17684 1 180.0000771 15.1670000 2
17679 17681 17683 17685 1 180.0000771 15.1670000 2
17682 17681 17683 17684 1 180.0000771 15.1670000 2
17682 17681 17683 17685 1 180.0000771 15.1670000 2
17679 17683 17681 17682 4 180.0000771 4.6024000 2
17676 17683 17685 17686 4 180.0000771 4.6024000 2
17681 17683 17685 17686 1 180.0000771 15.1670000 2
17684 17683 17685 17686 1 180.0000771 15.1670000 2
17676 17685 17683 17681 1 180.0000771 15.1670000 2
17676 17685 17683 17684 1 180.0000771 15.1670000 2
17681 17685 17683 17684 4 180.0000771 4.6024000 2
17689 17690 17691 17692 1 180.0000771 15.1670000 2
17689 17690 17691 17693 1 180.0000771 15.1670000 2
17692 17690 17691 17693 4 180.0000771 4.6024000 2
17689 17690 17699 17691 4 180.0000771 4.6024000 2
17689 17690 17699 17697 1 180.0000771 15.1670000 2
17689 17690 17699 17700 1 180.0000771 15.1670000 2
17691 17690 17699 17697 1 180.0000771 15.1670000 2
17691 17690 17699 17700 1 180.0000771 15.1670000 2
17692 17691 17690 17699 1 180.0000771 15.1670000 2
17693 17691 17690 17699 1 180.0000771 15.1670000 2
17690 17691 17693 17694 1 180.0000771 15.1670000 2
17690 17691 17693 17695 1 180.0000771 15.1670000 2
17692 17691 17693 17694 1 180.0000771 15.1670000 2
17692 17691 17693 17695 1 180.0000771 15.1670000 2
17691 17693 17695 17696 1 180.0000771 15.1670000 2
17691 17693 17695 17697 1 180.0000771 15.1670000 2
17694 17693 17695 17696 1 180.0000771 15.1670000 2
17694 17693 17695 17697 1 180.0000771 15.1670000 2
17691 17695 17693 17694 4 180.0000771 4.6024000 2
17693 17695 17697 17698 1 180.0000771 15.1670000 2
17693 17695 17697 17699 1 180.0000771 15.1670000 2
17696 17695 17697 17698 1 180.0000771 15.1670000 2
17696 17695 17697 17699 1 180.0000771 15.1670000 2
17693 17697 17695 17696 4 180.0000771 4.6024000 2
17690 17697 17699 17700 4 180.0000771 4.6024000 2
17695 17697 17699 17700 1 180.0000771 15.1670000 2
17698 17697 17699 17700 1 180.0000771 15.1670000 2
17690 17699 17697 17695 1 180.0000771 15.1670000 2
17690 17699 17697 17698 1 180.0000771 15.1670000 2
17695 17699 17697 17698 4 180.0000771 4.6024000 2
17703 17704 17705 17706 1 180.0000771 15.1670000 2
17703 17704 17705 17707 1 180.0000771 15.1670000 2
17706 17704 17705 17707 4 180.0000771 4.6024000 2
17703 17704 17713 17705 4 180.0000771 4.6024000 2
17703 17704 17713 17711 1 180.0000771 15.1670000 2
17703 17704 17713 17714 1 180.0000771 15.1670000 2
17705 17704 17713 17711 1 180.0000771 15.1670000 2
17705 17704 17713 17714 1 180.0000771 15.1670000 2
17706 17705 17704 17713 1 180.0000771 15.1670000 2
17707 17705 17704 17713 1 180.0000771 15.1670000 2
17704 17705 17707 17708 1 180.0000771 15.1670000 2
17704 17705 17707 17709 1 180.0000771 15.1670000 2
17706 17705 17707 17708 1 180.0000771 15.1670000 2
17706 17705 17707 17709 1 180.0000771 15.1670000 2
17705 17707 17709 17710 1 180.0000771 15.1670000 2
17705 17707 17709 17711 1 180.0000771 15.1670000 2
17708 17707 17709 17710 1 180.0000771 15.1670000 2
17708 17707 17709 17711 1 180.0000771 15.1670000 2
17705 17709 17707 17708 4 180.0000771 4.6024000 2
17707 17709 17711 17712 1 180.0000771 15.1670000 2
17707 17709 17711 17713 1 180.0000771 15.1670000 2
17710 17709 17711 17712 1 180.0000771 15.1670000 2
17710 17709 17711 17713 1 180.0000771 15.1670000 2
17707 17711 17709 17710 4 180.0000771 4.6024000 2
17704 17711 17713 17714 4 180.0000771 4.6024000 2
17709 17711 17713 17714 1 180.0000771 15.1670000 2
17712 17711 17713 17714 1 180.0000771 15.1670000 2
17704 17713 17711 17709 1 180.0000771 15.1670000 2
17704 17713 17711 17712 1 180.0000771 15.1670000 2
17709 17713 17711 17712 4 180.0000771 4.6024000 2
17717 17718 17719 17720 1 180.0000771 15.1670000 2
17717 17718 17719 17721 1 180.0000771 15.1670000 2
17720 17718 17719 17721 4 180.0000771 4.6024000 2
17717 17718 17727 17719 4 180.0000771 4.6024000 2
17717 17718 17727 17725 1 180.0000771 15.1670000 2
17717 17718 17727 17728 1 180.0000771 15.1670000 2
17719 17718 17727 17725 1 180.0000771 15.1670000 2
17719 17718 17727 17728 1 180.0000771 15.1670000 2
17720 17719 17718 17727 1 180.0000771 15.1670000 2
17721 17719 17718 17727 1 180.0000771 15.1670000 2
17718 17719 17721 17722 1 180.0000771 15.1670000 2
17718 17719 17721 17723 1 180.0000771 15.1670000 2
17720 17719 17721 17722 1 180.0000771 15.1670000 2
17720 17719 17721 17723 1 180.0000771 15.1670000 2
17719 17721 17723 17724 1 180.0000771 15.1670000 2
17719 17721 17723 17725 1 180.0000771 15.1670000 2
17722 17721 17723 17724 1 180.0000771 15.1670000 2
17722 17721 17723 17725 1 180.0000771 15.1670000 2
17719 17723 17721 17722 4 180.0000771 4.6024000 2
17721 17723 17725 17726 1 180.0000771 15.1670000 2
17721 17723 17725 17727 1 180.0000771 15.1670000 2
17724 17723 17725 17726 1 180.0000771 15.1670000 2
17724 17723 17725 17727 1 180.0000771 15.1670000 2
17721 17725 17723 17724 4 180.0000771 4.6024000 2
17718 17725 17727 17728 4 180.0000771 4.6024000 2
17723 17725 17727 17728 1 180.0000771 15.1670000 2
17726 17725 17727 17728 1 180.0000771 15.1670000 2
17718 17727 17725 17723 1 180.0000771 15.1670000 2
17718 17727 17725 17726 1 180.0000771 15.1670000 2
17723 17727 17725 17726 4 180.0000771 4.6024000 2
17731 17732 17733 17734 1 180.0000771 15.1670000 2
17731 17732 17733 17735 1 180.0000771 15.1670000 2
17734 17732 17733 17735 4 180.0000771 4.6024000 2
17731 17732 17741 17733 4 180.0000771 4.6024000 2
17731 17732 17741 17739 1 180.0000771 15.1670000 2
17731 17732 17741 17742 1 180.0000771 15.1670000 2
17733 17732 17741 17739 1 180.0000771 15.1670000 2
17733 17732 17741 17742 1 180.0000771 15.1670000 2
17734 17733 17732 17741 1 180.0000771 15.1670000 2
17735 17733 17732 17741 1 180.0000771 15.1670000 2
17732 17733 17735 17736 1 180.0000771 15.1670000 2
17732 17733 17735 17737 1 180.0000771 15.1670000 2
17734 17733 17735 17736 1 180.0000771 15.1670000 2
17734 17733 17735 17737 1 180.0000771 15.1670000 2
17733 17735 17737 17738 1 180.0000771 15.1670000 2
17733 17735 17737 17739 1 180.0000771 15.1670000 2
17736 17735 17737 17738 1 180.0000771 15.1670000 2
17736 17735 17737 17739 1 180.0000771 15.1670000 2
17733 17737 17735 17736 4 180.0000771 4.6024000 2
17735 17737 17739 17740 1 180.0000771 15.1670000 2
17735 17737 17739 17741 1 180.0000771 15.1670000 2
17738 17737 17739 17740 1 180.0000771 15.1670000 2
17738 17737 17739 17741 1 180.0000771 15.1670000 2
17735 17739 17737 17738 4 180.0000771 4.6024000 2
17732 17739 17741 17742 4 180.0000771 4.6024000 2
17737 17739 17741 17742 1 180.0000771 15.1670000 2
17740 17739 17741 17742 1 180.0000771 15.1670000 2
17732 17741 17739 17737 1 180.0000771 15.1670000 2
17732 17741 17739 17740 1 180.0000771 15.1670000 2
17737 17741 17739 17740 4 180.0000771 4.6024000 2
17745 17746 17747 17748 1 180.0000771 15.1670000 2
17745 17746 17747 17749 1 180.0000771 15.1670000 2
17748 17746 17747 17749 4 180.0000771 4.6024000 2
17745 17746 17755 17747 4 180.0000771 4.6024000 2
17745 17746 17755 17753 1 180.0000771 15.1670000 2
17745 17746 17755 17756 1 180.0000771 15.1670000 2
17747 17746 17755 17753 1 180.0000771 15.1670000 2
17747 17746 17755 17756 1 180.0000771 15.1670000 2
17748 17747 17746 17755 1 180.0000771 15.1670000 2
17749 17747 17746 17755 1 180.0000771 15.1670000 2
17746 17747 17749 17750 1 180.0000771 15.1670000 2
17746 17747 17749 17751 1 180.0000771 15.1670000 2
17748 17747 17749 17750 1 180.0000771 15.1670000 2
17748 17747 17749 17751 1 180.0000771 15.1670000 2
17747 17749 17751 17752 1 180.0000771 15.1670000 2
17747 17749 17751 17753 1 180.0000771 15.1670000 2
17750 17749 17751 17752 1 180.0000771 15.1670000 2
17750 17749 17751 17753 1 180.0000771 15.1670000 2
17747 17751 17749 17750 4 180.0000771 4.6024000 2
17749 17751 17753 17754 1 180.0000771 15.1670000 2
17749 17751 17753 17755 1 180.0000771 15.1670000 2
17752 17751 17753 17754 1 180.0000771 15.1670000 2
17752 17751 17753 17755 1 180.0000771 15.1670000 2
17749 17753 17751 17752 4 180.0000771 4.6024000 2
17746 17753 17755 17756 4 180.0000771 4.6024000 2
17751 17753 17755 17756 1 180.0000771 15.1670000 2
17754 17753 17755 17756 1 180.0000771 15.1670000 2
17746 17755 17753 17751 1 180.0000771 15.1670000 2
17746 17755 17753 17754 1 180.0000771 15.1670000 2
17751 17755 17753 17754 4 180.0000771 4.6024000 2
17759 17760 17761 17762 1 180.0000771 15.1670000 2
17759 17760 17761 17763 1 180.0000771 15.1670000 2
17762 17760 17761 17763 4 180.0000771 4.6024000 2
17759 17760 17769 17761 4 180.0000771 4.6024000 2
17759 17760 17769 17767 1 180.0000771 15.1670000 2
17759 17760 17769 17770 1 180.0000771 15.1670000 2
17761 17760 17769 17767 1 180.0000771 15.1670000 2
17761 17760 17769 17770 1 180.0000771 15.1670000 2
17762 17761 17760 17769 1 180.0000771 15.1670000 2
17763 17761 17760 17769 1 180.0000771 15.1670000 2
17760 17761 17763 17764 1 180.0000771 15.1670000 2
17760 17761 17763 17765 1 180.0000771 15.1670000 2
17762 17761 17763 17764 1 180.0000771 15.1670000 2
17762 17761 17763 17765 1 180.0000771 15.1670000 2
17761 17763 17765 17766 1 180.0000771 15.1670000 2
17761 17763 17765 17767 1 180.0000771 15.1670000 2
17764 17763 17765 17766 1 180.0000771 15.1670000 2
17764 17763 17765 17767 1 180.0000771 15.1670000 2
17761 17765 17763 17764 4 180.0000771 4.6024000 2
17763 17765 17767 17768 1 180.0000771 15.1670000 2
17763 17765 17767 17769 1 180.0000771 15.1670000 2
17766 17765 17767 17768 1 180.0000771 15.1670000 2
17766 17765 17767 17769 1 180.0000771 15.1670000 2
17763 17767 17765 17766 4 180.0000771 4.6024000 2
17760 17767 17769 17770 4 180.0000771 4.6024000 2
17765 17767 17769 17770 1 180.0000771 15.1670000 2
17768 17767 17769 17770 1 180.0000771 15.1670000 2
17760 17769 17767 17765 1 180.0000771 15.1670000 2
17760 17769 17767 17768 1 180.0000771 15.1670000 2
17765 17769 17767 17768 4 180.0000771 4.6024000 2
17773 17774 17775 17776 1 180.0000771 15.1670000 2
17773 17774 17775 17777 1 180.0000771 15.1670000 2
17776 17774 17775 17777 4 180.0000771 4.6024000 2
17773 17774 17783 17775 4 180.0000771 4.6024000 2
17773 17774 17783 17781 1 180.0000771 15.1670000 2
17773 17774 17783 17784 1 180.0000771 15.1670000 2
17775 17774 17783 17781 1 180.0000771 15.1670000 2
17775 17774 17783 17784 1 180.0000771 15.1670000 2
17776 17775 17774 17783 1 180.0000771 15.1670000 2
17777 17775 17774 17783 1 180.0000771 15.1670000 2
17774 17775 17777 17778 1 180.0000771 15.1670000 2
17774 17775 17777 17779 1 180.0000771 15.1670000 2
17776 17775 17777 17778 1 180.0000771 15.1670000 2
17776 17775 17777 17779 1 180.0000771 15.1670000 2
17775 17777 17779 17780 1 180.0000771 15.1670000 2
17775 17777 17779 17781 1 180.0000771 15.1670000 2
17778 17777 17779 17780 1 180.0000771 15.1670000 2
17778 17777 17779 17781 1 180.0000771 15.1670000 2
17775 17779 17777 17778 4 180.0000771 4.6024000 2
17777 17779 17781 17782 1 180.0000771 15.1670000 2
17777 17779 17781 17783 1 180.0000771 15.1670000 2
17780 17779 17781 17782 1 180.0000771 15.1670000 2
17780 17779 17781 17783 1 180.0000771 15.1670000 2
17777 17781 17779 17780 4 180.0000771 4.6024000 2
17774 17781 17783 17784 4 180.0000771 4.6024000 2
17779 17781 17783 17784 1 180.0000771 15.1670000 2
17782 17781 17783 17784 1 180.0000771 15.1670000 2
17774 17783 17781 17779 1 180.0000771 15.1670000 2
17774 17783 17781 17782 1 180.0000771 15.1670000 2
17779 17783 17781 17782 4 180.0000771 4.6024000 2
17787 17788 17789 17790 1 180.0000771 15.1670000 2
17787 17788 17789 17791 1 180.0000771 15.1670000 2
17790 17788 17789 17791 4 180.0000771 4.6024000 2
17787 17788 17797 17789 4 180.0000771 4.6024000 2
17787 17788 17797 17795 1 180.0000771 15.1670000 2
17787 17788 17797 17798 1 180.0000771 15.1670000 2
17789 17788 17797 17795 1 180.0000771 15.1670000 2
17789 17788 17797 17798 1 180.0000771 15.1670000 2
17790 17789 17788 17797 1 180.0000771 15.1670000 2
17791 17789 17788 17797 1 180.0000771 15.1670000 2
17788 17789 17791 17792 1 180.0000771 15.1670000 2
17788 17789 17791 17793 1 180.0000771 15.1670000 2
17790 17789 17791 17792 1 180.0000771 15.1670000 2
17790 17789 17791 17793 1 180.0000771 15.1670000 2
17789 17791 17793 17794 1 180.0000771 15.1670000 2
17789 17791 17793 17795 1 180.0000771 15.1670000 2
17792 17791 17793 17794 1 180.0000771 15.1670000 2
17792 17791 17793 17795 1 180.0000771 15.1670000 2
17789 17793 17791 17792 4 180.0000771 4.6024000 2
17791 17793 17795 17796 1 180.0000771 15.1670000 2
17791 17793 17795 17797 1 180.0000771 15.1670000 2
17794 17793 17795 17796 1 180.0000771 15.1670000 2
17794 17793 17795 17797 1 180.0000771 15.1670000 2
17791 17795 17793 17794 4 180.0000771 4.6024000 2
17788 17795 17797 17798 4 180.0000771 4.6024000 2
17793 17795 17797 17798 1 180.0000771 15.1670000 2
17796 17795 17797 17798 1 180.0000771 15.1670000 2
17788 17797 17795 17793 1 180.0000771 15.1670000 2
17788 17797 17795 17796 1 180.0000771 15.1670000 2
17793 17797 17795 17796 4 180.0000771 4.6024000 2
17801 17802 17803 17804 1 180.0000771 15.1670000 2
17801 17802 17803 17805 1 180.0000771 15.1670000 2
17804 17802 17803 17805 4 180.0000771 4.6024000 2
17801 17802 17811 17803 4 180.0000771 4.6024000 2
17801 17802 17811 17809 1 180.0000771 15.1670000 2
17801 17802 17811 17812 1 180.0000771 15.1670000 2
17803 17802 17811 17809 1 180.0000771 15.1670000 2
17803 17802 17811 17812 1 180.0000771 15.1670000 2
17804 17803 17802 17811 1 180.0000771 15.1670000 2
17805 17803 17802 17811 1 180.0000771 15.1670000 2
17802 17803 17805 17806 1 180.0000771 15.1670000 2
17802 17803 17805 17807 1 180.0000771 15.1670000 2
17804 17803 17805 17806 1 180.0000771 15.1670000 2
17804 17803 17805 17807 1 180.0000771 15.1670000 2
17803 17805 17807 17808 1 180.0000771 15.1670000 2
17803 17805 17807 17809 1 180.0000771 15.1670000 2
17806 17805 17807 17808 1 180.0000771 15.1670000 2
17806 17805 17807 17809 1 180.0000771 15.1670000 2
17803 17807 17805 17806 4 180.0000771 4.6024000 2
17805 17807 17809 17810 1 180.0000771 15.1670000 2
17805 17807 17809 17811 1 180.0000771 15.1670000 2
17808 17807 17809 17810 1 180.0000771 15.1670000 2
17808 17807 17809 17811 1 180.0000771 15.1670000 2
17805 17809 17807 17808 4 180.0000771 4.6024000 2
17802 17809 17811 17812 4 180.0000771 4.6024000 2
17807 17809 17811 17812 1 180.0000771 15.1670000 2
17810 17809 17811 17812 1 180.0000771 15.1670000 2
17802 17811 17809 17807 1 180.0000771 15.1670000 2
17802 17811 17809 17810 1 180.0000771 15.1670000 2
17807 17811 17809 17810 4 180.0000771 4.6024000 2
17815 17816 17817 17818 1 180.0000771 15.1670000 2
17815 17816 17817 17819 1 180.0000771 15.1670000 2
17818 17816 17817 17819 4 180.0000771 4.6024000 2
17815 17816 17825 17817 4 180.0000771 4.6024000 2
17815 17816 17825 17823 1 180.0000771 15.1670000 2
17815 17816 17825 17826 1 180.0000771 15.1670000 2
17817 17816 17825 17823 1 180.0000771 15.1670000 2
17817 17816 17825 17826 1 180.0000771 15.1670000 2
17818 17817 17816 17825 1 180.0000771 15.1670000 2
17819 17817 17816 17825 1 180.0000771 15.1670000 2
17816 17817 17819 17820 1 180.0000771 15.1670000 2
17816 17817 17819 17821 1 180.0000771 15.1670000 2
17818 17817 17819 17820 1 180.0000771 15.1670000 2
17818 17817 17819 17821 1 180.0000771 15.1670000 2
17817 17819 17821 17822 1 180.0000771 15.1670000 2
17817 17819 17821 17823 1 180.0000771 15.1670000 2
17820 17819 17821 17822 1 180.0000771 15.1670000 2
17820 17819 17821 17823 1 180.0000771 15.1670000 2
17817 17821 17819 17820 4 180.0000771 4.6024000 2
17819 17821 17823 17824 1 180.0000771 15.1670000 2
17819 17821 17823 17825 1 180.0000771 15.1670000 2
17822 17821 17823 17824 1 180.0000771 15.1670000 2
17822 17821 17823 17825 1 180.0000771 15.1670000 2
17819 17823 17821 17822 4 180.0000771 4.6024000 2
17816 17823 17825 17826 4 180.0000771 4.6024000 2
17821 17823 17825 17826 1 180.0000771 15.1670000 2
17824 17823 17825 17826 1 180.0000771 15.1670000 2
17816 17825 17823 17821 1 180.0000771 15.1670000 2
17816 17825 17823 17824 1 180.0000771 15.1670000 2
17821 17825 17823 17824 4 180.0000771 4.6024000 2
17829 17830 17831 17832 1 180.0000771 15.1670000 2
17829 17830 17831 17833 1 180.0000771 15.1670000 2
17832 17830 17831 17833 4 180.0000771 4.6024000 2
17829 17830 17839 17831 4 180.0000771 4.6024000 2
17829 17830 17839 17837 1 180.0000771 15.1670000 2
17829 17830 17839 17840 1 180.0000771 15.1670000 2
17831 17830 17839 17837 1 180.0000771 15.1670000 2
17831 17830 17839 17840 1 180.0000771 15.1670000 2
17832 17831 17830 17839 1 180.0000771 15.1670000 2
17833 17831 17830 17839 1 180.0000771 15.1670000 2
17830 17831 17833 17834 1 180.0000771 15.1670000 2
17830 17831 17833 17835 1 180.0000771 15.1670000 2
17832 17831 17833 17834 1 180.0000771 15.1670000 2
17832 17831 17833 17835 1 180.0000771 15.1670000 2
17831 17833 17835 17836 1 180.0000771 15.1670000 2
17831 17833 17835 17837 1 180.0000771 15.1670000 2
17834 17833 17835 17836 1 180.0000771 15.1670000 2
17834 17833 17835 17837 1 180.0000771 15.1670000 2
17831 17835 17833 17834 4 180.0000771 4.6024000 2
17833 17835 17837 17838 1 180.0000771 15.1670000 2
17833 17835 17837 17839 1 180.0000771 15.1670000 2
17836 17835 17837 17838 1 180.0000771 15.1670000 2
17836 17835 17837 17839 1 180.0000771 15.1670000 2
17833 17837 17835 17836 4 180.0000771 4.6024000 2
17830 17837 17839 17840 4 180.0000771 4.6024000 2
17835 17837 17839 17840 1 180.0000771 15.1670000 2
17838 17837 17839 17840 1 180.0000771 15.1670000 2
17830 17839 17837 17835 1 180.0000771 15.1670000 2
17830 17839 17837 17838 1 180.0000771 15.1670000 2
17835 17839 17837 17838 4 180.0000771 4.6024000 2
17843 17844 17845 17846 1 180.0000771 15.1670000 2
17843 17844 17845 17847 1 180.0000771 15.1670000 2
17846 17844 17845 17847 4 180.0000771 4.6024000 2
17843 17844 17853 17845 4 180.0000771 4.6024000 2
17843 17844 17853 17851 1 180.0000771 15.1670000 2
17843 17844 17853 17854 1 180.0000771 15.1670000 2
17845 17844 17853 17851 1 180.0000771 15.1670000 2
17845 17844 17853 17854 1 180.0000771 15.1670000 2
17846 17845 17844 17853 1 180.0000771 15.1670000 2
17847 17845 17844 17853 1 180.0000771 15.1670000 2
17844 17845 17847 17848 1 180.0000771 15.1670000 2
17844 17845 17847 17849 1 180.0000771 15.1670000 2
17846 17845 17847 17848 1 180.0000771 15.1670000 2
17846 17845 17847 17849 1 180.0000771 15.1670000 2
17845 17847 17849 17850 1 180.0000771 15.1670000 2
17845 17847 17849 17851 1 180.0000771 15.1670000 2
17848 17847 17849 17850 1 180.0000771 15.1670000 2
17848 17847 17849 17851 1 180.0000771 15.1670000 2
17845 17849 17847 17848 4 180.0000771 4.6024000 2
17847 17849 17851 17852 1 180.0000771 15.1670000 2
17847 17849 17851 17853 1 180.0000771 15.1670000 2
17850 17849 17851 17852 1 180.0000771 15.1670000 2
17850 17849 17851 17853 1 180.0000771 15.1670000 2
17847 17851 17849 17850 4 180.0000771 4.6024000 2
17844 17851 17853 17854 4 180.0000771 4.6024000 2
17849 17851 17853 17854 1 180.0000771 15.1670000 2
17852 17851 17853 17854 1 180.0000771 15.1670000 2
17844 17853 17851 17849 1 180.0000771 15.1670000 2
17844 17853 17851 17852 1 180.0000771 15.1670000 2
17849 17853 17851 17852 4 180.0000771 4.6024000 2
17857 17858 17859 17860 1 180.0000771 15.1670000 2
17857 17858 17859 17861 1 180.0000771 15.1670000 2
17860 17858 17859 17861 4 180.0000771 4.6024000 2
17857 17858 17867 17859 4 180.0000771 4.6024000 2
17857 17858 17867 17865 1 180.0000771 15.1670000 2
17857 17858 17867 17868 1 180.0000771 15.1670000 2
17859 17858 17867 17865 1 180.0000771 15.1670000 2
17859 17858 17867 17868 1 180.0000771 15.1670000 2
17860 17859 17858 17867 1 180.0000771 15.1670000 2
17861 17859 17858 17867 1 180.0000771 15.1670000 2
17858 17859 17861 17862 1 180.0000771 15.1670000 2
17858 17859 17861 17863 1 180.0000771 15.1670000 2
17860 17859 17861 17862 1 180.0000771 15.1670000 2
17860 17859 17861 17863 1 180.0000771 15.1670000 2
17859 17861 17863 17864 1 180.0000771 15.1670000 2
17859 17861 17863 17865 1 180.0000771 15.1670000 2
17862 17861 17863 17864 1 180.0000771 15.1670000 2
17862 17861 17863 17865 1 180.0000771 15.1670000 2
17859 17863 17861 17862 4 180.0000771 4.6024000 2
17861 17863 17865 17866 1 180.0000771 15.1670000 2
17861 17863 17865 17867 1 180.0000771 15.1670000 2
17864 17863 17865 17866 1 180.0000771 15.1670000 2
17864 17863 17865 17867 1 180.0000771 15.1670000 2
17861 17865 17863 17864 4 180.0000771 4.6024000 2
17858 17865 17867 17868 4 180.0000771 4.6024000 2
17863 17865 17867 17868 1 180.0000771 15.1670000 2
17866 17865 17867 17868 1 180.0000771 15.1670000 2
17858 17867 17865 17863 1 180.0000771 15.1670000 2
17858 17867 17865 17866 1 180.0000771 15.1670000 2
17863 17867 17865 17866 4 180.0000771 4.6024000 2
17871 17872 17873 17874 1 180.0000771 15.1670000 2
17871 17872 17873 17875 1 180.0000771 15.1670000 2
17874 17872 17873 17875 4 180.0000771 4.6024000 2
17871 17872 17881 17873 4 180.0000771 4.6024000 2
17871 17872 17881 17879 1 180.0000771 15.1670000 2
17871 17872 17881 17882 1 180.0000771 15.1670000 2
17873 17872 17881 17879 1 180.0000771 15.1670000 2
17873 17872 17881 17882 1 180.0000771 15.1670000 2
17874 17873 17872 17881 1 180.0000771 15.1670000 2
17875 17873 17872 17881 1 180.0000771 15.1670000 2
17872 17873 17875 17876 1 180.0000771 15.1670000 2
17872 17873 17875 17877 1 180.0000771 15.1670000 2
17874 17873 17875 17876 1 180.0000771 15.1670000 2
17874 17873 17875 17877 1 180.0000771 15.1670000 2
17873 17875 17877 17878 1 180.0000771 15.1670000 2
17873 17875 17877 17879 1 180.0000771 15.1670000 2
17876 17875 17877 17878 1 180.0000771 15.1670000 2
17876 17875 17877 17879 1 180.0000771 15.1670000 2
17873 17877 17875 17876 4 180.0000771 4.6024000 2
17875 17877 17879 17880 1 180.0000771 15.1670000 2
17875 17877 17879 17881 1 180.0000771 15.1670000 2
17878 17877 17879 17880 1 180.0000771 15.1670000 2
17878 17877 17879 17881 1 180.0000771 15.1670000 2
17875 17879 17877 17878 4 180.0000771 4.6024000 2
17872 17879 17881 17882 4 180.0000771 4.6024000 2
17877 17879 17881 17882 1 180.0000771 15.1670000 2
17880 17879 17881 17882 1 180.0000771 15.1670000 2
17872 17881 17879 17877 1 180.0000771 15.1670000 2
17872 17881 17879 17880 1 180.0000771 15.1670000 2
17877 17881 17879 17880 4 180.0000771 4.6024000 2
17885 17886 17887 17888 1 180.0000771 15.1670000 2
17885 17886 17887 17889 1 180.0000771 15.1670000 2
17888 17886 17887 17889 4 180.0000771 4.6024000 2
17885 17886 17895 17887 4 180.0000771 4.6024000 2
17885 17886 17895 17893 1 180.0000771 15.1670000 2
17885 17886 17895 17896 1 180.0000771 15.1670000 2
17887 17886 17895 17893 1 180.0000771 15.1670000 2
17887 17886 17895 17896 1 180.0000771 15.1670000 2
17888 17887 17886 17895 1 180.0000771 15.1670000 2
17889 17887 17886 17895 1 180.0000771 15.1670000 2
17886 17887 17889 17890 1 180.0000771 15.1670000 2
17886 17887 17889 17891 1 180.0000771 15.1670000 2
17888 17887 17889 17890 1 180.0000771 15.1670000 2
17888 17887 17889 17891 1 180.0000771 15.1670000 2
17887 17889 17891 17892 1 180.0000771 15.1670000 2
17887 17889 17891 17893 1 180.0000771 15.1670000 2
17890 17889 17891 17892 1 180.0000771 15.1670000 2
17890 17889 17891 17893 1 180.0000771 15.1670000 2
17887 17891 17889 17890 4 180.0000771 4.6024000 2
17889 17891 17893 17894 1 180.0000771 15.1670000 2
17889 17891 17893 17895 1 180.0000771 15.1670000 2
17892 17891 17893 17894 1 180.0000771 15.1670000 2
17892 17891 17893 17895 1 180.0000771 15.1670000 2
17889 17893 17891 17892 4 180.0000771 4.6024000 2
17886 17893 17895 17896 4 180.0000771 4.6024000 2
17891 17893 17895 17896 1 180.0000771 15.1670000 2
17894 17893 17895 17896 1 180.0000771 15.1670000 2
17886 17895 17893 17891 1 180.0000771 15.1670000 2
17886 17895 17893 17894 1 180.0000771 15.1670000 2
17891 17895 17893 17894 4 180.0000771 4.6024000 2
17899 17900 17901 17902 1 180.0000771 15.1670000 2
17899 17900 17901 17903 1 180.0000771 15.1670000 2
17902 17900 17901 17903 4 180.0000771 4.6024000 2
17899 17900 17909 17901 4 180.0000771 4.6024000 2
17899 17900 17909 17907 1 180.0000771 15.1670000 2
17899 17900 17909 17910 1 180.0000771 15.1670000 2
17901 17900 17909 17907 1 180.0000771 15.1670000 2
17901 17900 17909 17910 1 180.0000771 15.1670000 2
17902 17901 17900 17909 1 180.0000771 15.1670000 2
17903 17901 17900 17909 1 180.0000771 15.1670000 2
17900 17901 17903 17904 1 180.0000771 15.1670000 2
17900 17901 17903 17905 1 180.0000771 15.1670000 2
17902 17901 17903 17904 1 180.0000771 15.1670000 2
17902 17901 17903 17905 1 180.0000771 15.1670000 2
17901 17903 17905 17906 1 180.0000771 15.1670000 2
17901 17903 17905 17907 1 180.0000771 15.1670000 2
17904 17903 17905 17906 1 180.0000771 15.1670000 2
17904 17903 17905 17907 1 180.0000771 15.1670000 2
17901 17905 17903 17904 4 180.0000771 4.6024000 2
17903 17905 17907 17908 1 180.0000771 15.1670000 2
17903 17905 17907 17909 1 180.0000771 15.1670000 2
17906 17905 17907 17908 1 180.0000771 15.1670000 2
17906 17905 17907 17909 1 180.0000771 15.1670000 2
17903 17907 17905 17906 4 180.0000771 4.6024000 2
17900 17907 17909 17910 4 180.0000771 4.6024000 2
17905 17907 17909 17910 1 180.0000771 15.1670000 2
17908 17907 17909 17910 1 180.0000771 15.1670000 2
17900 17909 17907 17905 1 180.0000771 15.1670000 2
17900 17909 17907 17908 1 180.0000771 15.1670000 2
17905 17909 17907 17908 4 180.0000771 4.6024000 2
17913 17914 17915 17916 1 180.0000771 15.1670000 2
17913 17914 17915 17917 1 180.0000771 15.1670000 2
17916 17914 17915 17917 4 180.0000771 4.6024000 2
17913 17914 17923 17915 4 180.0000771 4.6024000 2
17913 17914 17923 17921 1 180.0000771 15.1670000 2
17913 17914 17923 17924 1 180.0000771 15.1670000 2
17915 17914 17923 17921 1 180.0000771 15.1670000 2
17915 17914 17923 17924 1 180.0000771 15.1670000 2
17916 17915 17914 17923 1 180.0000771 15.1670000 2
17917 17915 17914 17923 1 180.0000771 15.1670000 2
17914 17915 17917 17918 1 180.0000771 15.1670000 2
17914 17915 17917 17919 1 180.0000771 15.1670000 2
17916 17915 17917 17918 1 180.0000771 15.1670000 2
17916 17915 17917 17919 1 180.0000771 15.1670000 2
17915 17917 17919 17920 1 180.0000771 15.1670000 2
17915 17917 17919 17921 1 180.0000771 15.1670000 2
17918 17917 17919 17920 1 180.0000771 15.1670000 2
17918 17917 17919 17921 1 180.0000771 15.1670000 2
17915 17919 17917 17918 4 180.0000771 4.6024000 2
17917 17919 17921 17922 1 180.0000771 15.1670000 2
17917 17919 17921 17923 1 180.0000771 15.1670000 2
17920 17919 17921 17922 1 180.0000771 15.1670000 2
17920 17919 17921 17923 1 180.0000771 15.1670000 2
17917 17921 17919 17920 4 180.0000771 4.6024000 2
17914 17921 17923 17924 4 180.0000771 4.6024000 2
17919 17921 17923 17924 1 180.0000771 15.1670000 2
17922 17921 17923 17924 1 180.0000771 15.1670000 2
17914 17923 17921 17919 1 180.0000771 15.1670000 2
17914 17923 17921 17922 1 180.0000771 15.1670000 2
17919 17923 17921 17922 4 180.0000771 4.6024000 2
17927 17928 17929 17930 1 180.0000771 15.1670000 2
17927 17928 17929 17931 1 180.0000771 15.1670000 2
17930 17928 17929 17931 4 180.0000771 4.6024000 2
17927 17928 17937 17929 4 180.0000771 4.6024000 2
17927 17928 17937 17935 1 180.0000771 15.1670000 2
17927 17928 17937 17938 1 180.0000771 15.1670000 2
17929 17928 17937 17935 1 180.0000771 15.1670000 2
17929 17928 17937 17938 1 180.0000771 15.1670000 2
17930 17929 17928 17937 1 180.0000771 15.1670000 2
17931 17929 17928 17937 1 180.0000771 15.1670000 2
17928 17929 17931 17932 1 180.0000771 15.1670000 2
17928 17929 17931 17933 1 180.0000771 15.1670000 2
17930 17929 17931 17932 1 180.0000771 15.1670000 2
17930 17929 17931 17933 1 180.0000771 15.1670000 2
17929 17931 17933 17934 1 180.0000771 15.1670000 2
17929 17931 17933 17935 1 180.0000771 15.1670000 2
17932 17931 17933 17934 1 180.0000771 15.1670000 2
17932 17931 17933 17935 1 180.0000771 15.1670000 2
17929 17933 17931 17932 4 180.0000771 4.6024000 2
17931 17933 17935 17936 1 180.0000771 15.1670000 2
17931 17933 17935 17937 1 180.0000771 15.1670000 2
17934 17933 17935 17936 1 180.0000771 15.1670000 2
17934 17933 17935 17937 1 180.0000771 15.1670000 2
17931 17935 17933 17934 4 180.0000771 4.6024000 2
17928 17935 17937 17938 4 180.0000771 4.6024000 2
17933 17935 17937 17938 1 180.0000771 15.1670000 2
17936 17935 17937 17938 1 180.0000771 15.1670000 2
17928 17937 17935 17933 1 180.0000771 15.1670000 2
17928 17937 17935 17936 1 180.0000771 15.1670000 2
17933 17937 17935 17936 4 180.0000771 4.6024000 2
17941 17942 17943 17944 1 180.0000771 15.1670000 2
17941 17942 17943 17945 1 180.0000771 15.1670000 2
17944 17942 17943 17945 4 180.0000771 4.6024000 2
17941 17942 17951 17943 4 180.0000771 4.6024000 2
17941 17942 17951 17949 1 180.0000771 15.1670000 2
17941 17942 17951 17952 1 180.0000771 15.1670000 2
17943 17942 17951 17949 1 180.0000771 15.1670000 2
17943 17942 17951 17952 1 180.0000771 15.1670000 2
17944 17943 17942 17951 1 180.0000771 15.1670000 2
17945 17943 17942 17951 1 180.0000771 15.1670000 2
17942 17943 17945 17946 1 180.0000771 15.1670000 2
17942 17943 17945 17947 1 180.0000771 15.1670000 2
17944 17943 17945 17946 1 180.0000771 15.1670000 2
17944 17943 17945 17947 1 180.0000771 15.1670000 2
17943 17945 17947 17948 1 180.0000771 15.1670000 2
17943 17945 17947 17949 1 180.0000771 15.1670000 2
17946 17945 17947 17948 1 180.0000771 15.1670000 2
17946 17945 17947 17949 1 180.0000771 15.1670000 2
17943 17947 17945 17946 4 180.0000771 4.6024000 2
17945 17947 17949 17950 1 180.0000771 15.1670000 2
17945 17947 17949 17951 1 180.0000771 15.1670000 2
17948 17947 17949 17950 1 180.0000771 15.1670000 2
17948 17947 17949 17951 1 180.0000771 15.1670000 2
17945 17949 17947 17948 4 180.0000771 4.6024000 2
17942 17949 17951 17952 4 180.0000771 4.6024000 2
17947 17949 17951 17952 1 180.0000771 15.1670000 2
17950 17949 17951 17952 1 180.0000771 15.1670000 2
17942 17951 17949 17947 1 180.0000771 15.1670000 2
17942 17951 17949 17950 1 180.0000771 15.1670000 2
17947 17951 17949 17950 4 180.0000771 4.6024000 2
17955 17956 17957 17958 1 180.0000771 15.1670000 2
17955 17956 17957 17959 1 180.0000771 15.1670000 2
17958 17956 17957 17959 4 180.0000771 4.6024000 2
17955 17956 17965 17957 4 180.0000771 4.6024000 2
17955 17956 17965 17963 1 180.0000771 15.1670000 2
17955 17956 17965 17966 1 180.0000771 15.1670000 2
17957 17956 17965 17963 1 180.0000771 15.1670000 2
17957 17956 17965 17966 1 180.0000771 15.1670000 2
17958 17957 17956 17965 1 180.0000771 15.1670000 2
17959 17957 17956 17965 1 180.0000771 15.1670000 2
17956 17957 17959 17960 1 180.0000771 15.1670000 2
17956 17957 17959 17961 1 180.0000771 15.1670000 2
17958 17957 17959 17960 1 180.0000771 15.1670000 2
17958 17957 17959 17961 1 180.0000771 15.1670000 2
17957 17959 17961 17962 1 180.0000771 15.1670000 2
17957 17959 17961 17963 1 180.0000771 15.1670000 2
17960 17959 17961 17962 1 180.0000771 15.1670000 2
17960 17959 17961 17963 1 180.0000771 15.1670000 2
17957 17961 17959 17960 4 180.0000771 4.6024000 2
17959 17961 17963 17964 1 180.0000771 15.1670000 2
17959 17961 17963 17965 1 180.0000771 15.1670000 2
17962 17961 17963 17964 1 180.0000771 15.1670000 2
17962 17961 17963 17965 1 180.0000771 15.1670000 2
17959 17963 17961 17962 4 180.0000771 4.6024000 2
17956 17963 17965 17966 4 180.0000771 4.6024000 2
17961 17963 17965 17966 1 180.0000771 15.1670000 2
17964 17963 17965 17966 1 180.0000771 15.1670000 2
17956 17965 17963 17961 1 180.0000771 15.1670000 2
17956 17965 17963 17964 1 180.0000771 15.1670000 2
17961 17965 17963 17964 4 180.0000771 4.6024000 2
17969 17970 17971 17972 1 180.0000771 15.1670000 2
17969 17970 17971 17973 1 180.0000771 15.1670000 2
17972 17970 17971 17973 4 180.0000771 4.6024000 2
17969 17970 17979 17971 4 180.0000771 4.6024000 2
17969 17970 17979 17977 1 180.0000771 15.1670000 2
17969 17970 17979 17980 1 180.0000771 15.1670000 2
17971 17970 17979 17977 1 180.0000771 15.1670000 2
17971 17970 17979 17980 1 180.0000771 15.1670000 2
17972 17971 17970 17979 1 180.0000771 15.1670000 2
17973 17971 17970 17979 1 180.0000771 15.1670000 2
17970 17971 17973 17974 1 180.0000771 15.1670000 2
17970 17971 17973 17975 1 180.0000771 15.1670000 2
17972 17971 17973 17974 1 180.0000771 15.1670000 2
17972 17971 17973 17975 1 180.0000771 15.1670000 2
17971 17973 17975 17976 1 180.0000771 15.1670000 2
17971 17973 17975 17977 1 180.0000771 15.1670000 2
17974 17973 17975 17976 1 180.0000771 15.1670000 2
17974 17973 17975 17977 1 180.0000771 15.1670000 2
17971 17975 17973 17974 4 180.0000771 4.6024000 2
17973 17975 17977 17978 1 180.0000771 15.1670000 2
17973 17975 17977 17979 1 180.0000771 15.1670000 2
17976 17975 17977 17978 1 180.0000771 15.1670000 2
17976 17975 17977 17979 1 180.0000771 15.1670000 2
17973 17977 17975 17976 4 180.0000771 4.6024000 2
17970 17977 17979 17980 4 180.0000771 4.6024000 2
17975 17977 17979 17980 1 180.0000771 15.1670000 2
17978 17977 17979 17980 1 180.0000771 15.1670000 2
17970 17979 17977 17975 1 180.0000771 15.1670000 2
17970 17979 17977 17978 1 180.0000771 15.1670000 2
17975 17979 17977 17978 4 180.0000771 4.6024000 2
17983 17984 17985 17986 1 180.0000771 15.1670000 2
17983 17984 17985 17987 1 180.0000771 15.1670000 2
17986 17984 17985 17987 4 180.0000771 4.6024000 2
17983 17984 17993 17985 4 180.0000771 4.6024000 2
17983 17984 17993 17991 1 180.0000771 15.1670000 2
17983 17984 17993 17994 1 180.0000771 15.1670000 2
17985 17984 17993 17991 1 180.0000771 15.1670000 2
17985 17984 17993 17994 1 180.0000771 15.1670000 2
17986 17985 17984 17993 1 180.0000771 15.1670000 2
17987 17985 17984 17993 1 180.0000771 15.1670000 2
17984 17985 17987 17988 1 180.0000771 15.1670000 2
17984 17985 17987 17989 1 180.0000771 15.1670000 2
17986 17985 17987 17988 1 180.0000771 15.1670000 2
17986 17985 17987 17989 1 180.0000771 15.1670000 2
17985 17987 17989 17990 1 180.0000771 15.1670000 2
17985 17987 17989 17991 1 180.0000771 15.1670000 2
17988 17987 17989 17990 1 180.0000771 15.1670000 2
17988 17987 17989 17991 1 180.0000771 15.1670000 2
17985 17989 17987 17988 4 180.0000771 4.6024000 2
17987 17989 17991 17992 1 180.0000771 15.1670000 2
17987 17989 17991 17993 1 180.0000771 15.1670000 2
17990 17989 17991 17992 1 180.0000771 15.1670000 2
17990 17989 17991 17993 1 180.0000771 15.1670000 2
17987 17991 17989 17990 4 180.0000771 4.6024000 2
17984 17991 17993 17994 4 180.0000771 4.6024000 2
17989 17991 17993 17994 1 180.0000771 15.1670000 2
17992 17991 17993 17994 1 180.0000771 15.1670000 2
17984 17993 17991 17989 1 180.0000771 15.1670000 2
17984 17993 17991 17992 1 180.0000771 15.1670000 2
17989 17993 17991 17992 4 180.0000771 4.6024000 2
17997 17998 17999 18000 1 180.0000771 15.1670000 2
17997 17998 17999 18001 1 180.0000771 15.1670000 2
18000 17998 17999 18001 4 180.0000771 4.6024000 2
17997 17998 18007 17999 4 180.0000771 4.6024000 2
17997 17998 18007 18005 1 180.0000771 15.1670000 2
17997 17998 18007 18008 1 180.0000771 15.1670000 2
17999 17998 18007 18005 1 180.0000771 15.1670000 2
17999 17998 18007 18008 1 180.0000771 15.1670000 2
18000 17999 17998 18007 1 180.0000771 15.1670000 2
18001 17999 17998 18007 1 180.0000771 15.1670000 2
17998 17999 18001 18002 1 180.0000771 15.1670000 2
17998 17999 18001 18003 1 180.0000771 15.1670000 2
18000 17999 18001 18002 1 180.0000771 15.1670000 2
18000 17999 18001 18003 1 180.0000771 15.1670000 2
17999 18001 18003 18004 1 180.0000771 15.1670000 2
17999 18001 18003 18005 1 180.0000771 15.1670000 2
18002 18001 18003 18004 1 180.0000771 15.1670000 2
18002 18001 18003 18005 1 180.0000771 15.1670000 2
17999 18003 18001 18002 4 180.0000771 4.6024000 2
18001 18003 18005 18006 1 180.0000771 15.1670000 2
18001 18003 18005 18007 1 180.0000771 15.1670000 2
18004 18003 18005 18006 1 180.0000771 15.1670000 2
18004 18003 18005 18007 1 180.0000771 15.1670000 2
18001 18005 18003 18004 4 180.0000771 4.6024000 2
17998 18005 18007 18008 4 180.0000771 4.6024000 2
18003 18005 18007 18008 1 180.0000771 15.1670000 2
18006 18005 18007 18008 1 180.0000771 15.1670000 2
17998 18007 18005 18003 1 180.0000771 15.1670000 2
17998 18007 18005 18006 1 180.0000771 15.1670000 2
18003 18007 18005 18006 4 180.0000771 4.6024000 2
18011 18012 18013 18014 1 180.0000771 15.1670000 2
18011 18012 18013 18015 1 180.0000771 15.1670000 2
18014 18012 18013 18015 4 180.0000771 4.6024000 2
18011 18012 18021 18013 4 180.0000771 4.6024000 2
18011 18012 18021 18019 1 180.0000771 15.1670000 2
18011 18012 18021 18022 1 180.0000771 15.1670000 2
18013 18012 18021 18019 1 180.0000771 15.1670000 2
18013 18012 18021 18022 1 180.0000771 15.1670000 2
18014 18013 18012 18021 1 180.0000771 15.1670000 2
18015 18013 18012 18021 1 180.0000771 15.1670000 2
18012 18013 18015 18016 1 180.0000771 15.1670000 2
18012 18013 18015 18017 1 180.0000771 15.1670000 2
18014 18013 18015 18016 1 180.0000771 15.1670000 2
18014 18013 18015 18017 1 180.0000771 15.1670000 2
18013 18015 18017 18018 1 180.0000771 15.1670000 2
18013 18015 18017 18019 1 180.0000771 15.1670000 2
18016 18015 18017 18018 1 180.0000771 15.1670000 2
18016 18015 18017 18019 1 180.0000771 15.1670000 2
18013 18017 18015 18016 4 180.0000771 4.6024000 2
18015 18017 18019 18020 1 180.0000771 15.1670000 2
18015 18017 18019 18021 1 180.0000771 15.1670000 2
18018 18017 18019 18020 1 180.0000771 15.1670000 2
18018 18017 18019 18021 1 180.0000771 15.1670000 2
18015 18019 18017 18018 4 180.0000771 4.6024000 2
18012 18019 18021 18022 4 180.0000771 4.6024000 2
18017 18019 18021 18022 1 180.0000771 15.1670000 2
18020 18019 18021 18022 1 180.0000771 15.1670000 2
18012 18021 18019 18017 1 180.0000771 15.1670000 2
18012 18021 18019 18020 1 180.0000771 15.1670000 2
18017 18021 18019 18020 4 180.0000771 4.6024000 2
18025 18026 18027 18028 1 180.0000771 15.1670000 2
18025 18026 18027 18029 1 180.0000771 15.1670000 2
18028 18026 18027 18029 4 180.0000771 4.6024000 2
18025 18026 18035 18027 4 180.0000771 4.6024000 2
18025 18026 18035 18033 1 180.0000771 15.1670000 2
18025 18026 18035 18036 1 180.0000771 15.1670000 2
18027 18026 18035 18033 1 180.0000771 15.1670000 2
18027 18026 18035 18036 1 180.0000771 15.1670000 2
18028 18027 18026 18035 1 180.0000771 15.1670000 2
18029 18027 18026 18035 1 180.0000771 15.1670000 2
18026 18027 18029 18030 1 180.0000771 15.1670000 2
18026 18027 18029 18031 1 180.0000771 15.1670000 2
18028 18027 18029 18030 1 180.0000771 15.1670000 2
18028 18027 18029 18031 1 180.0000771 15.1670000 2
18027 18029 18031 18032 1 180.0000771 15.1670000 2
18027 18029 18031 18033 1 180.0000771 15.1670000 2
18030 18029 18031 18032 1 180.0000771 15.1670000 2
18030 18029 18031 18033 1 180.0000771 15.1670000 2
18027 18031 18029 18030 4 180.0000771 4.6024000 2
18029 18031 18033 18034 1 180.0000771 15.1670000 2
18029 18031 18033 18035 1 180.0000771 15.1670000 2
18032 18031 18033 18034 1 180.0000771 15.1670000 2
18032 18031 18033 18035 1 180.0000771 15.1670000 2
18029 18033 18031 18032 4 180.0000771 4.6024000 2
18026 18033 18035 18036 4 180.0000771 4.6024000 2
18031 18033 18035 18036 1 180.0000771 15.1670000 2
18034 18033 18035 18036 1 180.0000771 15.1670000 2
18026 18035 18033 18031 1 180.0000771 15.1670000 2
18026 18035 18033 18034 1 180.0000771 15.1670000 2
18031 18035 18033 18034 4 180.0000771 4.6024000 2
18039 18040 18041 18042 1 180.0000771 15.1670000 2
18039 18040 18041 18043 1 180.0000771 15.1670000 2
18042 18040 18041 18043 4 180.0000771 4.6024000 2
18039 18040 18049 18041 4 180.0000771 4.6024000 2
18039 18040 18049 18047 1 180.0000771 15.1670000 2
18039 18040 18049 18050 1 180.0000771 15.1670000 2
18041 18040 18049 18047 1 180.0000771 15.1670000 2
18041 18040 18049 18050 1 180.0000771 15.1670000 2
18042 18041 18040 18049 1 180.0000771 15.1670000 2
18043 18041 18040 18049 1 180.0000771 15.1670000 2
18040 18041 18043 18044 1 180.0000771 15.1670000 2
18040 18041 18043 18045 1 180.0000771 15.1670000 2
18042 18041 18043 18044 1 180.0000771 15.1670000 2
18042 18041 18043 18045 1 180.0000771 15.1670000 2
18041 18043 18045 18046 1 180.0000771 15.1670000 2
18041 18043 18045 18047 1 180.0000771 15.1670000 2
18044 18043 18045 18046 1 180.0000771 15.1670000 2
18044 18043 18045 18047 1 180.0000771 15.1670000 2
18041 18045 18043 18044 4 180.0000771 4.6024000 2
18043 18045 18047 18048 1 180.0000771 15.1670000 2
18043 18045 18047 18049 1 180.0000771 15.1670000 2
18046 18045 18047 18048 1 180.0000771 15.1670000 2
18046 18045 18047 18049 1 180.0000771 15.1670000 2
18043 18047 18045 18046 4 180.0000771 4.6024000 2
18040 18047 18049 18050 4 180.0000771 4.6024000 2
18045 18047 18049 18050 1 180.0000771 15.1670000 2
18048 18047 18049 18050 1 180.0000771 15.1670000 2
18040 18049 18047 18045 1 180.0000771 15.1670000 2
18040 18049 18047 18048 1 180.0000771 15.1670000 2
18045 18049 18047 18048 4 180.0000771 4.6024000 2
18053 18054 18055 18056 1 180.0000771 15.1670000 2
18053 18054 18055 18057 1 180.0000771 15.1670000 2
18056 18054 18055 18057 4 180.0000771 4.6024000 2
18053 18054 18063 18055 4 180.0000771 4.6024000 2
18053 18054 18063 18061 1 180.0000771 15.1670000 2
18053 18054 18063 18064 1 180.0000771 15.1670000 2
18055 18054 18063 18061 1 180.0000771 15.1670000 2
18055 18054 18063 18064 1 180.0000771 15.1670000 2
18056 18055 18054 18063 1 180.0000771 15.1670000 2
18057 18055 18054 18063 1 180.0000771 15.1670000 2
18054 18055 18057 18058 1 180.0000771 15.1670000 2
18054 18055 18057 18059 1 180.0000771 15.1670000 2
18056 18055 18057 18058 1 180.0000771 15.1670000 2
18056 18055 18057 18059 1 180.0000771 15.1670000 2
18055 18057 18059 18060 1 180.0000771 15.1670000 2
18055 18057 18059 18061 1 180.0000771 15.1670000 2
18058 18057 18059 18060 1 180.0000771 15.1670000 2
18058 18057 18059 18061 1 180.0000771 15.1670000 2
18055 18059 18057 18058 4 180.0000771 4.6024000 2
18057 18059 18061 18062 1 180.0000771 15.1670000 2
18057 18059 18061 18063 1 180.0000771 15.1670000 2
18060 18059 18061 18062 1 180.0000771 15.1670000 2
18060 18059 18061 18063 1 180.0000771 15.1670000 2
18057 18061 18059 18060 4 180.0000771 4.6024000 2
18054 18061 18063 18064 4 180.0000771 4.6024000 2
18059 18061 18063 18064 1 180.0000771 15.1670000 2
18062 18061 18063 18064 1 180.0000771 15.1670000 2
18054 18063 18061 18059 1 180.0000771 15.1670000 2
18054 18063 18061 18062 1 180.0000771 15.1670000 2
18059 18063 18061 18062 4 180.0000771 4.6024000 2
18067 18068 18069 18070 1 180.0000771 15.1670000 2
18067 18068 18069 18071 1 180.0000771 15.1670000 2
18070 18068 18069 18071 4 180.0000771 4.6024000 2
18067 18068 18077 18069 4 180.0000771 4.6024000 2
18067 18068 18077 18075 1 180.0000771 15.1670000 2
18067 18068 18077 18078 1 180.0000771 15.1670000 2
18069 18068 18077 18075 1 180.0000771 15.1670000 2
18069 18068 18077 18078 1 180.0000771 15.1670000 2
18070 18069 18068 18077 1 180.0000771 15.1670000 2
18071 18069 18068 18077 1 180.0000771 15.1670000 2
18068 18069 18071 18072 1 180.0000771 15.1670000 2
18068 18069 18071 18073 1 180.0000771 15.1670000 2
18070 18069 18071 18072 1 180.0000771 15.1670000 2
18070 18069 18071 18073 1 180.0000771 15.1670000 2
18069 18071 18073 18074 1 180.0000771 15.1670000 2
18069 18071 18073 18075 1 180.0000771 15.1670000 2
18072 18071 18073 18074 1 180.0000771 15.1670000 2
18072 18071 18073 18075 1 180.0000771 15.1670000 2
18069 18073 18071 18072 4 180.0000771 4.6024000 2
18071 18073 18075 18076 1 180.0000771 15.1670000 2
18071 18073 18075 18077 1 180.0000771 15.1670000 2
18074 18073 18075 18076 1 180.0000771 15.1670000 2
18074 18073 18075 18077 1 180.0000771 15.1670000 2
18071 18075 18073 18074 4 180.0000771 4.6024000 2
18068 18075 18077 18078 4 180.0000771 4.6024000 2
18073 18075 18077 18078 1 180.0000771 15.1670000 2
18076 18075 18077 18078 1 180.0000771 15.1670000 2
18068 18077 18075 18073 1 180.0000771 15.1670000 2
18068 18077 18075 18076 1 180.0000771 15.1670000 2
18073 18077 18075 18076 4 180.0000771 4.6024000 2
18081 18082 18083 18084 1 180.0000771 15.1670000 2
18081 18082 18083 18085 1 180.0000771 15.1670000 2
18084 18082 18083 18085 4 180.0000771 4.6024000 2
18081 18082 18091 18083 4 180.0000771 4.6024000 2
18081 18082 18091 18089 1 180.0000771 15.1670000 2
18081 18082 18091 18092 1 180.0000771 15.1670000 2
18083 18082 18091 18089 1 180.0000771 15.1670000 2
18083 18082 18091 18092 1 180.0000771 15.1670000 2
18084 18083 18082 18091 1 180.0000771 15.1670000 2
18085 18083 18082 18091 1 180.0000771 15.1670000 2
18082 18083 18085 18086 1 180.0000771 15.1670000 2
18082 18083 18085 18087 1 180.0000771 15.1670000 2
18084 18083 18085 18086 1 180.0000771 15.1670000 2
18084 18083 18085 18087 1 180.0000771 15.1670000 2
18083 18085 18087 18088 1 180.0000771 15.1670000 2
18083 18085 18087 18089 1 180.0000771 15.1670000 2
18086 18085 18087 18088 1 180.0000771 15.1670000 2
18086 18085 18087 18089 1 180.0000771 15.1670000 2
18083 18087 18085 18086 4 180.0000771 4.6024000 2
18085 18087 18089 18090 1 180.0000771 15.1670000 2
18085 18087 18089 18091 1 180.0000771 15.1670000 2
18088 18087 18089 18090 1 180.0000771 15.1670000 2
18088 18087 18089 18091 1 180.0000771 15.1670000 2
18085 18089 18087 18088 4 180.0000771 4.6024000 2
18082 18089 18091 18092 4 180.0000771 4.6024000 2
18087 18089 18091 18092 1 180.0000771 15.1670000 2
18090 18089 18091 18092 1 180.0000771 15.1670000 2
18082 18091 18089 18087 1 180.0000771 15.1670000 2
18082 18091 18089 18090 1 180.0000771 15.1670000 2
18087 18091 18089 18090 4 180.0000771 4.6024000 2
18095 18096 18097 18098 1 180.0000771 15.1670000 2
18095 18096 18097 18099 1 180.0000771 15.1670000 2
18098 18096 18097 18099 4 180.0000771 4.6024000 2
18095 18096 18105 18097 4 180.0000771 4.6024000 2
18095 18096 18105 18103 1 180.0000771 15.1670000 2
18095 18096 18105 18106 1 180.0000771 15.1670000 2
18097 18096 18105 18103 1 180.0000771 15.1670000 2
18097 18096 18105 18106 1 180.0000771 15.1670000 2
18098 18097 18096 18105 1 180.0000771 15.1670000 2
18099 18097 18096 18105 1 180.0000771 15.1670000 2
18096 18097 18099 18100 1 180.0000771 15.1670000 2
18096 18097 18099 18101 1 180.0000771 15.1670000 2
18098 18097 18099 18100 1 180.0000771 15.1670000 2
18098 18097 18099 18101 1 180.0000771 15.1670000 2
18097 18099 18101 18102 1 180.0000771 15.1670000 2
18097 18099 18101 18103 1 180.0000771 15.1670000 2
18100 18099 18101 18102 1 180.0000771 15.1670000 2
18100 18099 18101 18103 1 180.0000771 15.1670000 2
18097 18101 18099 18100 4 180.0000771 4.6024000 2
18099 18101 18103 18104 1 180.0000771 15.1670000 2
18099 18101 18103 18105 1 180.0000771 15.1670000 2
18102 18101 18103 18104 1 180.0000771 15.1670000 2
18102 18101 18103 18105 1 180.0000771 15.1670000 2
18099 18103 18101 18102 4 180.0000771 4.6024000 2
18096 18103 18105 18106 4 180.0000771 4.6024000 2
18101 18103 18105 18106 1 180.0000771 15.1670000 2
18104 18103 18105 18106 1 180.0000771 15.1670000 2
18096 18105 18103 18101 1 180.0000771 15.1670000 2
18096 18105 18103 18104 1 180.0000771 15.1670000 2
18101 18105 18103 18104 4 180.0000771 4.6024000 2
18109 18110 18111 18112 1 180.0000771 15.1670000 2
18109 18110 18111 18113 1 180.0000771 15.1670000 2
18112 18110 18111 18113 4 180.0000771 4.6024000 2
18109 18110 18119 18111 4 180.0000771 4.6024000 2
18109 18110 18119 18117 1 180.0000771 15.1670000 2
18109 18110 18119 18120 1 180.0000771 15.1670000 2
18111 18110 18119 18117 1 180.0000771 15.1670000 2
18111 18110 18119 18120 1 180.0000771 15.1670000 2
18112 18111 18110 18119 1 180.0000771 15.1670000 2
18113 18111 18110 18119 1 180.0000771 15.1670000 2
18110 18111 18113 18114 1 180.0000771 15.1670000 2
18110 18111 18113 18115 1 180.0000771 15.1670000 2
18112 18111 18113 18114 1 180.0000771 15.1670000 2
18112 18111 18113 18115 1 180.0000771 15.1670000 2
18111 18113 18115 18116 1 180.0000771 15.1670000 2
18111 18113 18115 18117 1 180.0000771 15.1670000 2
18114 18113 18115 18116 1 180.0000771 15.1670000 2
18114 18113 18115 18117 1 180.0000771 15.1670000 2
18111 18115 18113 18114 4 180.0000771 4.6024000 2
18113 18115 18117 18118 1 180.0000771 15.1670000 2
18113 18115 18117 18119 1 180.0000771 15.1670000 2
18116 18115 18117 18118 1 180.0000771 15.1670000 2
18116 18115 18117 18119 1 180.0000771 15.1670000 2
18113 18117 18115 18116 4 180.0000771 4.6024000 2
18110 18117 18119 18120 4 180.0000771 4.6024000 2
18115 18117 18119 18120 1 180.0000771 15.1670000 2
18118 18117 18119 18120 1 180.0000771 15.1670000 2
18110 18119 18117 18115 1 180.0000771 15.1670000 2
18110 18119 18117 18118 1 180.0000771 15.1670000 2
18115 18119 18117 18118 4 180.0000771 4.6024000 2
18123 18124 18125 18126 1 180.0000771 15.1670000 2
18123 18124 18125 18127 1 180.0000771 15.1670000 2
18126 18124 18125 18127 4 180.0000771 4.6024000 2
18123 18124 18133 18125 4 180.0000771 4.6024000 2
18123 18124 18133 18131 1 180.0000771 15.1670000 2
18123 18124 18133 18134 1 180.0000771 15.1670000 2
18125 18124 18133 18131 1 180.0000771 15.1670000 2
18125 18124 18133 18134 1 180.0000771 15.1670000 2
18126 18125 18124 18133 1 180.0000771 15.1670000 2
18127 18125 18124 18133 1 180.0000771 15.1670000 2
18124 18125 18127 18128 1 180.0000771 15.1670000 2
18124 18125 18127 18129 1 180.0000771 15.1670000 2
18126 18125 18127 18128 1 180.0000771 15.1670000 2
18126 18125 18127 18129 1 180.0000771 15.1670000 2
18125 18127 18129 18130 1 180.0000771 15.1670000 2
18125 18127 18129 18131 1 180.0000771 15.1670000 2
18128 18127 18129 18130 1 180.0000771 15.1670000 2
18128 18127 18129 18131 1 180.0000771 15.1670000 2
18125 18129 18127 18128 4 180.0000771 4.6024000 2
18127 18129 18131 18132 1 180.0000771 15.1670000 2
18127 18129 18131 18133 1 180.0000771 15.1670000 2
18130 18129 18131 18132 1 180.0000771 15.1670000 2
18130 18129 18131 18133 1 180.0000771 15.1670000 2
18127 18131 18129 18130 4 180.0000771 4.6024000 2
18124 18131 18133 18134 4 180.0000771 4.6024000 2
18129 18131 18133 18134 1 180.0000771 15.1670000 2
18132 18131 18133 18134 1 180.0000771 15.1670000 2
18124 18133 18131 18129 1 180.0000771 15.1670000 2
18124 18133 18131 18132 1 180.0000771 15.1670000 2
18129 18133 18131 18132 4 180.0000771 4.6024000 2
18137 18138 18139 18140 1 180.0000771 15.1670000 2
18137 18138 18139 18141 1 180.0000771 15.1670000 2
18140 18138 18139 18141 4 180.0000771 4.6024000 2
18137 18138 18147 18139 4 180.0000771 4.6024000 2
18137 18138 18147 18145 1 180.0000771 15.1670000 2
18137 18138 18147 18148 1 180.0000771 15.1670000 2
18139 18138 18147 18145 1 180.0000771 15.1670000 2
18139 18138 18147 18148 1 180.0000771 15.1670000 2
18140 18139 18138 18147 1 180.0000771 15.1670000 2
18141 18139 18138 18147 1 180.0000771 15.1670000 2
18138 18139 18141 18142 1 180.0000771 15.1670000 2
18138 18139 18141 18143 1 180.0000771 15.1670000 2
18140 18139 18141 18142 1 180.0000771 15.1670000 2
18140 18139 18141 18143 1 180.0000771 15.1670000 2
18139 18141 18143 18144 1 180.0000771 15.1670000 2
18139 18141 18143 18145 1 180.0000771 15.1670000 2
18142 18141 18143 18144 1 180.0000771 15.1670000 2
18142 18141 18143 18145 1 180.0000771 15.1670000 2
18139 18143 18141 18142 4 180.0000771 4.6024000 2
18141 18143 18145 18146 1 180.0000771 15.1670000 2
18141 18143 18145 18147 1 180.0000771 15.1670000 2
18144 18143 18145 18146 1 180.0000771 15.1670000 2
18144 18143 18145 18147 1 180.0000771 15.1670000 2
18141 18145 18143 18144 4 180.0000771 4.6024000 2
18138 18145 18147 18148 4 180.0000771 4.6024000 2
18143 18145 18147 18148 1 180.0000771 15.1670000 2
18146 18145 18147 18148 1 180.0000771 15.1670000 2
18138 18147 18145 18143 1 180.0000771 15.1670000 2
18138 18147 18145 18146 1 180.0000771 15.1670000 2
18143 18147 18145 18146 4 180.0000771 4.6024000 2
18151 18152 18153 18154 1 180.0000771 15.1670000 2
18151 18152 18153 18155 1 180.0000771 15.1670000 2
18154 18152 18153 18155 4 180.0000771 4.6024000 2
18151 18152 18161 18153 4 180.0000771 4.6024000 2
18151 18152 18161 18159 1 180.0000771 15.1670000 2
18151 18152 18161 18162 1 180.0000771 15.1670000 2
18153 18152 18161 18159 1 180.0000771 15.1670000 2
18153 18152 18161 18162 1 180.0000771 15.1670000 2
18154 18153 18152 18161 1 180.0000771 15.1670000 2
18155 18153 18152 18161 1 180.0000771 15.1670000 2
18152 18153 18155 18156 1 180.0000771 15.1670000 2
18152 18153 18155 18157 1 180.0000771 15.1670000 2
18154 18153 18155 18156 1 180.0000771 15.1670000 2
18154 18153 18155 18157 1 180.0000771 15.1670000 2
18153 18155 18157 18158 1 180.0000771 15.1670000 2
18153 18155 18157 18159 1 180.0000771 15.1670000 2
18156 18155 18157 18158 1 180.0000771 15.1670000 2
18156 18155 18157 18159 1 180.0000771 15.1670000 2
18153 18157 18155 18156 4 180.0000771 4.6024000 2
18155 18157 18159 18160 1 180.0000771 15.1670000 2
18155 18157 18159 18161 1 180.0000771 15.1670000 2
18158 18157 18159 18160 1 180.0000771 15.1670000 2
18158 18157 18159 18161 1 180.0000771 15.1670000 2
18155 18159 18157 18158 4 180.0000771 4.6024000 2
18152 18159 18161 18162 4 180.0000771 4.6024000 2
18157 18159 18161 18162 1 180.0000771 15.1670000 2
18160 18159 18161 18162 1 180.0000771 15.1670000 2
18152 18161 18159 18157 1 180.0000771 15.1670000 2
18152 18161 18159 18160 1 180.0000771 15.1670000 2
18157 18161 18159 18160 4 180.0000771 4.6024000 2
18165 18166 18167 18168 1 180.0000771 15.1670000 2
18165 18166 18167 18169 1 180.0000771 15.1670000 2
18168 18166 18167 18169 4 180.0000771 4.6024000 2
18165 18166 18175 18167 4 180.0000771 4.6024000 2
18165 18166 18175 18173 1 180.0000771 15.1670000 2
18165 18166 18175 18176 1 180.0000771 15.1670000 2
18167 18166 18175 18173 1 180.0000771 15.1670000 2
18167 18166 18175 18176 1 180.0000771 15.1670000 2
18168 18167 18166 18175 1 180.0000771 15.1670000 2
18169 18167 18166 18175 1 180.0000771 15.1670000 2
18166 18167 18169 18170 1 180.0000771 15.1670000 2
18166 18167 18169 18171 1 180.0000771 15.1670000 2
18168 18167 18169 18170 1 180.0000771 15.1670000 2
18168 18167 18169 18171 1 180.0000771 15.1670000 2
18167 18169 18171 18172 1 180.0000771 15.1670000 2
18167 18169 18171 18173 1 180.0000771 15.1670000 2
18170 18169 18171 18172 1 180.0000771 15.1670000 2
18170 18169 18171 18173 1 180.0000771 15.1670000 2
18167 18171 18169 18170 4 180.0000771 4.6024000 2
18169 18171 18173 18174 1 180.0000771 15.1670000 2
18169 18171 18173 18175 1 180.0000771 15.1670000 2
18172 18171 18173 18174 1 180.0000771 15.1670000 2
18172 18171 18173 18175 1 180.0000771 15.1670000 2
18169 18173 18171 18172 4 180.0000771 4.6024000 2
18166 18173 18175 18176 4 180.0000771 4.6024000 2
18171 18173 18175 18176 1 180.0000771 15.1670000 2
18174 18173 18175 18176 1 180.0000771 15.1670000 2
18166 18175 18173 18171 1 180.0000771 15.1670000 2
18166 18175 18173 18174 1 180.0000771 15.1670000 2
18171 18175 18173 18174 4 180.0000771 4.6024000 2
18179 18180 18181 18182 1 180.0000771 15.1670000 2
18179 18180 18181 18183 1 180.0000771 15.1670000 2
18182 18180 18181 18183 4 180.0000771 4.6024000 2
18179 18180 18189 18181 4 180.0000771 4.6024000 2
18179 18180 18189 18187 1 180.0000771 15.1670000 2
18179 18180 18189 18190 1 180.0000771 15.1670000 2
18181 18180 18189 18187 1 180.0000771 15.1670000 2
18181 18180 18189 18190 1 180.0000771 15.1670000 2
18182 18181 18180 18189 1 180.0000771 15.1670000 2
18183 18181 18180 18189 1 180.0000771 15.1670000 2
18180 18181 18183 18184 1 180.0000771 15.1670000 2
18180 18181 18183 18185 1 180.0000771 15.1670000 2
18182 18181 18183 18184 1 180.0000771 15.1670000 2
18182 18181 18183 18185 1 180.0000771 15.1670000 2
18181 18183 18185 18186 1 180.0000771 15.1670000 2
18181 18183 18185 18187 1 180.0000771 15.1670000 2
18184 18183 18185 18186 1 180.0000771 15.1670000 2
18184 18183 18185 18187 1 180.0000771 15.1670000 2
18181 18185 18183 18184 4 180.0000771 4.6024000 2
18183 18185 18187 18188 1 180.0000771 15.1670000 2
18183 18185 18187 18189 1 180.0000771 15.1670000 2
18186 18185 18187 18188 1 180.0000771 15.1670000 2
18186 18185 18187 18189 1 180.0000771 15.1670000 2
18183 18187 18185 18186 4 180.0000771 4.6024000 2
18180 18187 18189 18190 4 180.0000771 4.6024000 2
18185 18187 18189 18190 1 180.0000771 15.1670000 2
18188 18187 18189 18190 1 180.0000771 15.1670000 2
18180 18189 18187 18185 1 180.0000771 15.1670000 2
18180 18189 18187 18188 1 180.0000771 15.1670000 2
18185 18189 18187 18188 4 180.0000771 4.6024000 2
18193 18194 18195 18196 1 180.0000771 15.1670000 2
18193 18194 18195 18197 1 180.0000771 15.1670000 2
18196 18194 18195 18197 4 180.0000771 4.6024000 2
18193 18194 18203 18195 4 180.0000771 4.6024000 2
18193 18194 18203 18201 1 180.0000771 15.1670000 2
18193 18194 18203 18204 1 180.0000771 15.1670000 2
18195 18194 18203 18201 1 180.0000771 15.1670000 2
18195 18194 18203 18204 1 180.0000771 15.1670000 2
18196 18195 18194 18203 1 180.0000771 15.1670000 2
18197 18195 18194 18203 1 180.0000771 15.1670000 2
18194 18195 18197 18198 1 180.0000771 15.1670000 2
18194 18195 18197 18199 1 180.0000771 15.1670000 2
18196 18195 18197 18198 1 180.0000771 15.1670000 2
18196 18195 18197 18199 1 180.0000771 15.1670000 2
18195 18197 18199 18200 1 180.0000771 15.1670000 2
18195 18197 18199 18201 1 180.0000771 15.1670000 2
18198 18197 18199 18200 1 180.0000771 15.1670000 2
18198 18197 18199 18201 1 180.0000771 15.1670000 2
18195 18199 18197 18198 4 180.0000771 4.6024000 2
18197 18199 18201 18202 1 180.0000771 15.1670000 2
18197 18199 18201 18203 1 180.0000771 15.1670000 2
18200 18199 18201 18202 1 180.0000771 15.1670000 2
18200 18199 18201 18203 1 180.0000771 15.1670000 2
18197 18201 18199 18200 4 180.0000771 4.6024000 2
18194 18201 18203 18204 4 180.0000771 4.6024000 2
18199 18201 18203 18204 1 180.0000771 15.1670000 2
18202 18201 18203 18204 1 180.0000771 15.1670000 2
18194 18203 18201 18199 1 180.0000771 15.1670000 2
18194 18203 18201 18202 1 180.0000771 15.1670000 2
18199 18203 18201 18202 4 180.0000771 4.6024000 2
18207 18208 18209 18210 1 180.0000771 15.1670000 2
18207 18208 18209 18211 1 180.0000771 15.1670000 2
18210 18208 18209 18211 4 180.0000771 4.6024000 2
18207 18208 18217 18209 4 180.0000771 4.6024000 2
18207 18208 18217 18215 1 180.0000771 15.1670000 2
18207 18208 18217 18218 1 180.0000771 15.1670000 2
18209 18208 18217 18215 1 180.0000771 15.1670000 2
18209 18208 18217 18218 1 180.0000771 15.1670000 2
18210 18209 18208 18217 1 180.0000771 15.1670000 2
18211 18209 18208 18217 1 180.0000771 15.1670000 2
18208 18209 18211 18212 1 180.0000771 15.1670000 2
18208 18209 18211 18213 1 180.0000771 15.1670000 2
18210 18209 18211 18212 1 180.0000771 15.1670000 2
18210 18209 18211 18213 1 180.0000771 15.1670000 2
18209 18211 18213 18214 1 180.0000771 15.1670000 2
18209 18211 18213 18215 1 180.0000771 15.1670000 2
18212 18211 18213 18214 1 180.0000771 15.1670000 2
18212 18211 18213 18215 1 180.0000771 15.1670000 2
18209 18213 18211 18212 4 180.0000771 4.6024000 2
18211 18213 18215 18216 1 180.0000771 15.1670000 2
18211 18213 18215 18217 1 180.0000771 15.1670000 2
18214 18213 18215 18216 1 180.0000771 15.1670000 2
18214 18213 18215 18217 1 180.0000771 15.1670000 2
18211 18215 18213 18214 4 180.0000771 4.6024000 2
18208 18215 18217 18218 4 180.0000771 4.6024000 2
18213 18215 18217 18218 1 180.0000771 15.1670000 2
18216 18215 18217 18218 1 180.0000771 15.1670000 2
18208 18217 18215 18213 1 180.0000771 15.1670000 2
18208 18217 18215 18216 1 180.0000771 15.1670000 2
18213 18217 18215 18216 4 180.0000771 4.6024000 2
18221 18222 18223 18224 1 180.0000771 15.1670000 2
18221 18222 18223 18225 1 180.0000771 15.1670000 2
18224 18222 18223 18225 4 180.0000771 4.6024000 2
18221 18222 18231 18223 4 180.0000771 4.6024000 2
18221 18222 18231 18229 1 180.0000771 15.1670000 2
18221 18222 18231 18232 1 180.0000771 15.1670000 2
18223 18222 18231 18229 1 180.0000771 15.1670000 2
18223 18222 18231 18232 1 180.0000771 15.1670000 2
18224 18223 18222 18231 1 180.0000771 15.1670000 2
18225 18223 18222 18231 1 180.0000771 15.1670000 2
18222 18223 18225 18226 1 180.0000771 15.1670000 2
18222 18223 18225 18227 1 180.0000771 15.1670000 2
18224 18223 18225 18226 1 180.0000771 15.1670000 2
18224 18223 18225 18227 1 180.0000771 15.1670000 2
18223 18225 18227 18228 1 180.0000771 15.1670000 2
18223 18225 18227 18229 1 180.0000771 15.1670000 2
18226 18225 18227 18228 1 180.0000771 15.1670000 2
18226 18225 18227 18229 1 180.0000771 15.1670000 2
18223 18227 18225 18226 4 180.0000771 4.6024000 2
18225 18227 18229 18230 1 180.0000771 15.1670000 2
18225 18227 18229 18231 1 180.0000771 15.1670000 2
18228 18227 18229 18230 1 180.0000771 15.1670000 2
18228 18227 18229 18231 1 180.0000771 15.1670000 2
18225 18229 18227 18228 4 180.0000771 4.6024000 2
18222 18229 18231 18232 4 180.0000771 4.6024000 2
18227 18229 18231 18232 1 180.0000771 15.1670000 2
18230 18229 18231 18232 1 180.0000771 15.1670000 2
18222 18231 18229 18227 1 180.0000771 15.1670000 2
18222 18231 18229 18230 1 180.0000771 15.1670000 2
18227 18231 18229 18230 4 180.0000771 4.6024000 2
18235 18236 18237 18238 1 180.0000771 15.1670000 2
18235 18236 18237 18239 1 180.0000771 15.1670000 2
18238 18236 18237 18239 4 180.0000771 4.6024000 2
18235 18236 18245 18237 4 180.0000771 4.6024000 2
18235 18236 18245 18243 1 180.0000771 15.1670000 2
18235 18236 18245 18246 1 180.0000771 15.1670000 2
18237 18236 18245 18243 1 180.0000771 15.1670000 2
18237 18236 18245 18246 1 180.0000771 15.1670000 2
18238 18237 18236 18245 1 180.0000771 15.1670000 2
18239 18237 18236 18245 1 180.0000771 15.1670000 2
18236 18237 18239 18240 1 180.0000771 15.1670000 2
18236 18237 18239 18241 1 180.0000771 15.1670000 2
18238 18237 18239 18240 1 180.0000771 15.1670000 2
18238 18237 18239 18241 1 180.0000771 15.1670000 2
18237 18239 18241 18242 1 180.0000771 15.1670000 2
18237 18239 18241 18243 1 180.0000771 15.1670000 2
18240 18239 18241 18242 1 180.0000771 15.1670000 2
18240 18239 18241 18243 1 180.0000771 15.1670000 2
18237 18241 18239 18240 4 180.0000771 4.6024000 2
18239 18241 18243 18244 1 180.0000771 15.1670000 2
18239 18241 18243 18245 1 180.0000771 15.1670000 2
18242 18241 18243 18244 1 180.0000771 15.1670000 2
18242 18241 18243 18245 1 180.0000771 15.1670000 2
18239 18243 18241 18242 4 180.0000771 4.6024000 2
18236 18243 18245 18246 4 180.0000771 4.6024000 2
18241 18243 18245 18246 1 180.0000771 15.1670000 2
18244 18243 18245 18246 1 180.0000771 15.1670000 2
18236 18245 18243 18241 1 180.0000771 15.1670000 2
18236 18245 18243 18244 1 180.0000771 15.1670000 2
18241 18245 18243 18244 4 180.0000771 4.6024000 2
18249 18250 18251 18252 1 180.0000771 15.1670000 2
18249 18250 18251 18253 1 180.0000771 15.1670000 2
18252 18250 18251 18253 4 180.0000771 4.6024000 2
18249 18250 18259 18251 4 180.0000771 4.6024000 2
18249 18250 18259 18257 1 180.0000771 15.1670000 2
18249 18250 18259 18260 1 180.0000771 15.1670000 2
18251 18250 18259 18257 1 180.0000771 15.1670000 2
18251 18250 18259 18260 1 180.0000771 15.1670000 2
18252 18251 18250 18259 1 180.0000771 15.1670000 2
18253 18251 18250 18259 1 180.0000771 15.1670000 2
18250 18251 18253 18254 1 180.0000771 15.1670000 2
18250 18251 18253 18255 1 180.0000771 15.1670000 2
18252 18251 18253 18254 1 180.0000771 15.1670000 2
18252 18251 18253 18255 1 180.0000771 15.1670000 2
18251 18253 18255 18256 1 180.0000771 15.1670000 2
18251 18253 18255 18257 1 180.0000771 15.1670000 2
18254 18253 18255 18256 1 180.0000771 15.1670000 2
18254 18253 18255 18257 1 180.0000771 15.1670000 2
18251 18255 18253 18254 4 180.0000771 4.6024000 2
18253 18255 18257 18258 1 180.0000771 15.1670000 2
18253 18255 18257 18259 1 180.0000771 15.1670000 2
18256 18255 18257 18258 1 180.0000771 15.1670000 2
18256 18255 18257 18259 1 180.0000771 15.1670000 2
18253 18257 18255 18256 4 180.0000771 4.6024000 2
18250 18257 18259 18260 4 180.0000771 4.6024000 2
18255 18257 18259 18260 1 180.0000771 15.1670000 2
18258 18257 18259 18260 1 180.0000771 15.1670000 2
18250 18259 18257 18255 1 180.0000771 15.1670000 2
18250 18259 18257 18258 1 180.0000771 15.1670000 2
18255 18259 18257 18258 4 180.0000771 4.6024000 2
18263 18264 18265 18266 1 180.0000771 15.1670000 2
18263 18264 18265 18267 1 180.0000771 15.1670000 2
18266 18264 18265 18267 4 180.0000771 4.6024000 2
18263 18264 18273 18265 4 180.0000771 4.6024000 2
18263 18264 18273 18271 1 180.0000771 15.1670000 2
18263 18264 18273 18274 1 180.0000771 15.1670000 2
18265 18264 18273 18271 1 180.0000771 15.1670000 2
18265 18264 18273 18274 1 180.0000771 15.1670000 2
18266 18265 18264 18273 1 180.0000771 15.1670000 2
18267 18265 18264 18273 1 180.0000771 15.1670000 2
18264 18265 18267 18268 1 180.0000771 15.1670000 2
18264 18265 18267 18269 1 180.0000771 15.1670000 2
18266 18265 18267 18268 1 180.0000771 15.1670000 2
18266 18265 18267 18269 1 180.0000771 15.1670000 2
18265 18267 18269 18270 1 180.0000771 15.1670000 2
18265 18267 18269 18271 1 180.0000771 15.1670000 2
18268 18267 18269 18270 1 180.0000771 15.1670000 2
18268 18267 18269 18271 1 180.0000771 15.1670000 2
18265 18269 18267 18268 4 180.0000771 4.6024000 2
18267 18269 18271 18272 1 180.0000771 15.1670000 2
18267 18269 18271 18273 1 180.0000771 15.1670000 2
18270 18269 18271 18272 1 180.0000771 15.1670000 2
18270 18269 18271 18273 1 180.0000771 15.1670000 2
18267 18271 18269 18270 4 180.0000771 4.6024000 2
18264 18271 18273 18274 4 180.0000771 4.6024000 2
18269 18271 18273 18274 1 180.0000771 15.1670000 2
18272 18271 18273 18274 1 180.0000771 15.1670000 2
18264 18273 18271 18269 1 180.0000771 15.1670000 2
18264 18273 18271 18272 1 180.0000771 15.1670000 2
18269 18273 18271 18272 4 180.0000771 4.6024000 2
18277 18278 18279 18280 1 180.0000771 15.1670000 2
18277 18278 18279 18281 1 180.0000771 15.1670000 2
18280 18278 18279 18281 4 180.0000771 4.6024000 2
18277 18278 18287 18279 4 180.0000771 4.6024000 2
18277 18278 18287 18285 1 180.0000771 15.1670000 2
18277 18278 18287 18288 1 180.0000771 15.1670000 2
18279 18278 18287 18285 1 180.0000771 15.1670000 2
18279 18278 18287 18288 1 180.0000771 15.1670000 2
18280 18279 18278 18287 1 180.0000771 15.1670000 2
18281 18279 18278 18287 1 180.0000771 15.1670000 2
18278 18279 18281 18282 1 180.0000771 15.1670000 2
18278 18279 18281 18283 1 180.0000771 15.1670000 2
18280 18279 18281 18282 1 180.0000771 15.1670000 2
18280 18279 18281 18283 1 180.0000771 15.1670000 2
18279 18281 18283 18284 1 180.0000771 15.1670000 2
18279 18281 18283 18285 1 180.0000771 15.1670000 2
18282 18281 18283 18284 1 180.0000771 15.1670000 2
18282 18281 18283 18285 1 180.0000771 15.1670000 2
18279 18283 18281 18282 4 180.0000771 4.6024000 2
18281 18283 18285 18286 1 180.0000771 15.1670000 2
18281 18283 18285 18287 1 180.0000771 15.1670000 2
18284 18283 18285 18286 1 180.0000771 15.1670000 2
18284 18283 18285 18287 1 180.0000771 15.1670000 2
18281 18285 18283 18284 4 180.0000771 4.6024000 2
18278 18285 18287 18288 4 180.0000771 4.6024000 2
18283 18285 18287 18288 1 180.0000771 15.1670000 2
18286 18285 18287 18288 1 180.0000771 15.1670000 2
18278 18287 18285 18283 1 180.0000771 15.1670000 2
18278 18287 18285 18286 1 180.0000771 15.1670000 2
18283 18287 18285 18286 4 180.0000771 4.6024000 2
18291 18292 18293 18294 1 180.0000771 15.1670000 2
18291 18292 18293 18295 1 180.0000771 15.1670000 2
18294 18292 18293 18295 4 180.0000771 4.6024000 2
18291 18292 18301 18293 4 180.0000771 4.6024000 2
18291 18292 18301 18299 1 180.0000771 15.1670000 2
18291 18292 18301 18302 1 180.0000771 15.1670000 2
18293 18292 18301 18299 1 180.0000771 15.1670000 2
18293 18292 18301 18302 1 180.0000771 15.1670000 2
18294 18293 18292 18301 1 180.0000771 15.1670000 2
18295 18293 18292 18301 1 180.0000771 15.1670000 2
18292 18293 18295 18296 1 180.0000771 15.1670000 2
18292 18293 18295 18297 1 180.0000771 15.1670000 2
18294 18293 18295 18296 1 180.0000771 15.1670000 2
18294 18293 18295 18297 1 180.0000771 15.1670000 2
18293 18295 18297 18298 1 180.0000771 15.1670000 2
18293 18295 18297 18299 1 180.0000771 15.1670000 2
18296 18295 18297 18298 1 180.0000771 15.1670000 2
18296 18295 18297 18299 1 180.0000771 15.1670000 2
18293 18297 18295 18296 4 180.0000771 4.6024000 2
18295 18297 18299 18300 1 180.0000771 15.1670000 2
18295 18297 18299 18301 1 180.0000771 15.1670000 2
18298 18297 18299 18300 1 180.0000771 15.1670000 2
18298 18297 18299 18301 1 180.0000771 15.1670000 2
18295 18299 18297 18298 4 180.0000771 4.6024000 2
18292 18299 18301 18302 4 180.0000771 4.6024000 2
18297 18299 18301 18302 1 180.0000771 15.1670000 2
18300 18299 18301 18302 1 180.0000771 15.1670000 2
18292 18301 18299 18297 1 180.0000771 15.1670000 2
18292 18301 18299 18300 1 180.0000771 15.1670000 2
18297 18301 18299 18300 4 180.0000771 4.6024000 2
18305 18306 18307 18308 1 180.0000771 15.1670000 2
18305 18306 18307 18309 1 180.0000771 15.1670000 2
18308 18306 18307 18309 4 180.0000771 4.6024000 2
18305 18306 18315 18307 4 180.0000771 4.6024000 2
18305 18306 18315 18313 1 180.0000771 15.1670000 2
18305 18306 18315 18316 1 180.0000771 15.1670000 2
18307 18306 18315 18313 1 180.0000771 15.1670000 2
18307 18306 18315 18316 1 180.0000771 15.1670000 2
18308 18307 18306 18315 1 180.0000771 15.1670000 2
18309 18307 18306 18315 1 180.0000771 15.1670000 2
18306 18307 18309 18310 1 180.0000771 15.1670000 2
18306 18307 18309 18311 1 180.0000771 15.1670000 2
18308 18307 18309 18310 1 180.0000771 15.1670000 2
18308 18307 18309 18311 1 180.0000771 15.1670000 2
18307 18309 18311 18312 1 180.0000771 15.1670000 2
18307 18309 18311 18313 1 180.0000771 15.1670000 2
18310 18309 18311 18312 1 180.0000771 15.1670000 2
18310 18309 18311 18313 1 180.0000771 15.1670000 2
18307 18311 18309 18310 4 180.0000771 4.6024000 2
18309 18311 18313 18314 1 180.0000771 15.1670000 2
18309 18311 18313 18315 1 180.0000771 15.1670000 2
18312 18311 18313 18314 1 180.0000771 15.1670000 2
18312 18311 18313 18315 1 180.0000771 15.1670000 2
18309 18313 18311 18312 4 180.0000771 4.6024000 2
18306 18313 18315 18316 4 180.0000771 4.6024000 2
18311 18313 18315 18316 1 180.0000771 15.1670000 2
18314 18313 18315 18316 1 180.0000771 15.1670000 2
18306 18315 18313 18311 1 180.0000771 15.1670000 2
18306 18315 18313 18314 1 180.0000771 15.1670000 2
18311 18315 18313 18314 4 180.0000771 4.6024000 2
18319 18320 18321 18322 1 180.0000771 15.1670000 2
18319 18320 18321 18323 1 180.0000771 15.1670000 2
18322 18320 18321 18323 4 180.0000771 4.6024000 2
18319 18320 18329 18321 4 180.0000771 4.6024000 2
18319 18320 18329 18327 1 180.0000771 15.1670000 2
18319 18320 18329 18330 1 180.0000771 15.1670000 2
18321 18320 18329 18327 1 180.0000771 15.1670000 2
18321 18320 18329 18330 1 180.0000771 15.1670000 2
18322 18321 18320 18329 1 180.0000771 15.1670000 2
18323 18321 18320 18329 1 180.0000771 15.1670000 2
18320 18321 18323 18324 1 180.0000771 15.1670000 2
18320 18321 18323 18325 1 180.0000771 15.1670000 2
18322 18321 18323 18324 1 180.0000771 15.1670000 2
18322 18321 18323 18325 1 180.0000771 15.1670000 2
18321 18323 18325 18326 1 180.0000771 15.1670000 2
18321 18323 18325 18327 1 180.0000771 15.1670000 2
18324 18323 18325 18326 1 180.0000771 15.1670000 2
18324 18323 18325 18327 1 180.0000771 15.1670000 2
18321 18325 18323 18324 4 180.0000771 4.6024000 2
18323 18325 18327 18328 1 180.0000771 15.1670000 2
18323 18325 18327 18329 1 180.0000771 15.1670000 2
18326 18325 18327 18328 1 180.0000771 15.1670000 2
18326 18325 18327 18329 1 180.0000771 15.1670000 2
18323 18327 18325 18326 4 180.0000771 4.6024000 2
18320 18327 18329 18330 4 180.0000771 4.6024000 2
18325 18327 18329 18330 1 180.0000771 15.1670000 2
18328 18327 18329 18330 1 180.0000771 15.1670000 2
18320 18329 18327 18325 1 180.0000771 15.1670000 2
18320 18329 18327 18328 1 180.0000771 15.1670000 2
18325 18329 18327 18328 4 180.0000771 4.6024000 2
18333 18334 18335 18336 1 180.0000771 15.1670000 2
18333 18334 18335 18337 1 180.0000771 15.1670000 2
18336 18334 18335 18337 4 180.0000771 4.6024000 2
18333 18334 18343 18335 4 180.0000771 4.6024000 2
18333 18334 18343 18341 1 180.0000771 15.1670000 2
18333 18334 18343 18344 1 180.0000771 15.1670000 2
18335 18334 18343 18341 1 180.0000771 15.1670000 2
18335 18334 18343 18344 1 180.0000771 15.1670000 2
18336 18335 18334 18343 1 180.0000771 15.1670000 2
18337 18335 18334 18343 1 180.0000771 15.1670000 2
18334 18335 18337 18338 1 180.0000771 15.1670000 2
18334 18335 18337 18339 1 180.0000771 15.1670000 2
18336 18335 18337 18338 1 180.0000771 15.1670000 2
18336 18335 18337 18339 1 180.0000771 15.1670000 2
18335 18337 18339 18340 1 180.0000771 15.1670000 2
18335 18337 18339 18341 1 180.0000771 15.1670000 2
18338 18337 18339 18340 1 180.0000771 15.1670000 2
18338 18337 18339 18341 1 180.0000771 15.1670000 2
18335 18339 18337 18338 4 180.0000771 4.6024000 2
18337 18339 18341 18342 1 180.0000771 15.1670000 2
18337 18339 18341 18343 1 180.0000771 15.1670000 2
18340 18339 18341 18342 1 180.0000771 15.1670000 2
18340 18339 18341 18343 1 180.0000771 15.1670000 2
18337 18341 18339 18340 4 180.0000771 4.6024000 2
18334 18341 18343 18344 4 180.0000771 4.6024000 2
18339 18341 18343 18344 1 180.0000771 15.1670000 2
18342 18341 18343 18344 1 180.0000771 15.1670000 2
18334 18343 18341 18339 1 180.0000771 15.1670000 2
18334 18343 18341 18342 1 180.0000771 15.1670000 2
18339 18343 18341 18342 4 180.0000771 4.6024000 2
18347 18348 18349 18350 1 180.0000771 15.1670000 2
18347 18348 18349 18351 1 180.0000771 15.1670000 2
18350 18348 18349 18351 4 180.0000771 4.6024000 2
18347 18348 18357 18349 4 180.0000771 4.6024000 2
18347 18348 18357 18355 1 180.0000771 15.1670000 2
18347 18348 18357 18358 1 180.0000771 15.1670000 2
18349 18348 18357 18355 1 180.0000771 15.1670000 2
18349 18348 18357 18358 1 180.0000771 15.1670000 2
18350 18349 18348 18357 1 180.0000771 15.1670000 2
18351 18349 18348 18357 1 180.0000771 15.1670000 2
18348 18349 18351 18352 1 180.0000771 15.1670000 2
18348 18349 18351 18353 1 180.0000771 15.1670000 2
18350 18349 18351 18352 1 180.0000771 15.1670000 2
18350 18349 18351 18353 1 180.0000771 15.1670000 2
18349 18351 18353 18354 1 180.0000771 15.1670000 2
18349 18351 18353 18355 1 180.0000771 15.1670000 2
18352 18351 18353 18354 1 180.0000771 15.1670000 2
18352 18351 18353 18355 1 180.0000771 15.1670000 2
18349 18353 18351 18352 4 180.0000771 4.6024000 2
18351 18353 18355 18356 1 180.0000771 15.1670000 2
18351 18353 18355 18357 1 180.0000771 15.1670000 2
18354 18353 18355 18356 1 180.0000771 15.1670000 2
18354 18353 18355 18357 1 180.0000771 15.1670000 2
18351 18355 18353 18354 4 180.0000771 4.6024000 2
18348 18355 18357 18358 4 180.0000771 4.6024000 2
18353 18355 18357 18358 1 180.0000771 15.1670000 2
18356 18355 18357 18358 1 180.0000771 15.1670000 2
18348 18357 18355 18353 1 180.0000771 15.1670000 2
18348 18357 18355 18356 1 180.0000771 15.1670000 2
18353 18357 18355 18356 4 180.0000771 4.6024000 2
18361 18362 18363 18364 1 180.0000771 15.1670000 2
18361 18362 18363 18365 1 180.0000771 15.1670000 2
18364 18362 18363 18365 4 180.0000771 4.6024000 2
18361 18362 18371 18363 4 180.0000771 4.6024000 2
18361 18362 18371 18369 1 180.0000771 15.1670000 2
18361 18362 18371 18372 1 180.0000771 15.1670000 2
18363 18362 18371 18369 1 180.0000771 15.1670000 2
18363 18362 18371 18372 1 180.0000771 15.1670000 2
18364 18363 18362 18371 1 180.0000771 15.1670000 2
18365 18363 18362 18371 1 180.0000771 15.1670000 2
18362 18363 18365 18366 1 180.0000771 15.1670000 2
18362 18363 18365 18367 1 180.0000771 15.1670000 2
18364 18363 18365 18366 1 180.0000771 15.1670000 2
18364 18363 18365 18367 1 180.0000771 15.1670000 2
18363 18365 18367 18368 1 180.0000771 15.1670000 2
18363 18365 18367 18369 1 180.0000771 15.1670000 2
18366 18365 18367 18368 1 180.0000771 15.1670000 2
18366 18365 18367 18369 1 180.0000771 15.1670000 2
18363 18367 18365 18366 4 180.0000771 4.6024000 2
18365 18367 18369 18370 1 180.0000771 15.1670000 2
18365 18367 18369 18371 1 180.0000771 15.1670000 2
18368 18367 18369 18370 1 180.0000771 15.1670000 2
18368 18367 18369 18371 1 180.0000771 15.1670000 2
18365 18369 18367 18368 4 180.0000771 4.6024000 2
18362 18369 18371 18372 4 180.0000771 4.6024000 2
18367 18369 18371 18372 1 180.0000771 15.1670000 2
18370 18369 18371 18372 1 180.0000771 15.1670000 2
18362 18371 18369 18367 1 180.0000771 15.1670000 2
18362 18371 18369 18370 1 180.0000771 15.1670000 2
18367 18371 18369 18370 4 180.0000771 4.6024000 2
18375 18376 18377 18378 1 180.0000771 15.1670000 2
18375 18376 18377 18379 1 180.0000771 15.1670000 2
18378 18376 18377 18379 4 180.0000771 4.6024000 2
18375 18376 18385 18377 4 180.0000771 4.6024000 2
18375 18376 18385 18383 1 180.0000771 15.1670000 2
18375 18376 18385 18386 1 180.0000771 15.1670000 2
18377 18376 18385 18383 1 180.0000771 15.1670000 2
18377 18376 18385 18386 1 180.0000771 15.1670000 2
18378 18377 18376 18385 1 180.0000771 15.1670000 2
18379 18377 18376 18385 1 180.0000771 15.1670000 2
18376 18377 18379 18380 1 180.0000771 15.1670000 2
18376 18377 18379 18381 1 180.0000771 15.1670000 2
18378 18377 18379 18380 1 180.0000771 15.1670000 2
18378 18377 18379 18381 1 180.0000771 15.1670000 2
18377 18379 18381 18382 1 180.0000771 15.1670000 2
18377 18379 18381 18383 1 180.0000771 15.1670000 2
18380 18379 18381 18382 1 180.0000771 15.1670000 2
18380 18379 18381 18383 1 180.0000771 15.1670000 2
18377 18381 18379 18380 4 180.0000771 4.6024000 2
18379 18381 18383 18384 1 180.0000771 15.1670000 2
18379 18381 18383 18385 1 180.0000771 15.1670000 2
18382 18381 18383 18384 1 180.0000771 15.1670000 2
18382 18381 18383 18385 1 180.0000771 15.1670000 2
18379 18383 18381 18382 4 180.0000771 4.6024000 2
18376 18383 18385 18386 4 180.0000771 4.6024000 2
18381 18383 18385 18386 1 180.0000771 15.1670000 2
18384 18383 18385 18386 1 180.0000771 15.1670000 2
18376 18385 18383 18381 1 180.0000771 15.1670000 2
18376 18385 18383 18384 1 180.0000771 15.1670000 2
18381 18385 18383 18384 4 180.0000771 4.6024000 2
18389 18390 18391 18392 1 180.0000771 15.1670000 2
18389 18390 18391 18393 1 180.0000771 15.1670000 2
18392 18390 18391 18393 4 180.0000771 4.6024000 2
18389 18390 18399 18391 4 180.0000771 4.6024000 2
18389 18390 18399 18397 1 180.0000771 15.1670000 2
18389 18390 18399 18400 1 180.0000771 15.1670000 2
18391 18390 18399 18397 1 180.0000771 15.1670000 2
18391 18390 18399 18400 1 180.0000771 15.1670000 2
18392 18391 18390 18399 1 180.0000771 15.1670000 2
18393 18391 18390 18399 1 180.0000771 15.1670000 2
18390 18391 18393 18394 1 180.0000771 15.1670000 2
18390 18391 18393 18395 1 180.0000771 15.1670000 2
18392 18391 18393 18394 1 180.0000771 15.1670000 2
18392 18391 18393 18395 1 180.0000771 15.1670000 2
18391 18393 18395 18396 1 180.0000771 15.1670000 2
18391 18393 18395 18397 1 180.0000771 15.1670000 2
18394 18393 18395 18396 1 180.0000771 15.1670000 2
18394 18393 18395 18397 1 180.0000771 15.1670000 2
18391 18395 18393 18394 4 180.0000771 4.6024000 2
18393 18395 18397 18398 1 180.0000771 15.1670000 2
18393 18395 18397 18399 1 180.0000771 15.1670000 2
18396 18395 18397 18398 1 180.0000771 15.1670000 2
18396 18395 18397 18399 1 180.0000771 15.1670000 2
18393 18397 18395 18396 4 180.0000771 4.6024000 2
18390 18397 18399 18400 4 180.0000771 4.6024000 2
18395 18397 18399 18400 1 180.0000771 15.1670000 2
18398 18397 18399 18400 1 180.0000771 15.1670000 2
18390 18399 18397 18395 1 180.0000771 15.1670000 2
18390 18399 18397 18398 1 180.0000771 15.1670000 2
18395 18399 18397 18398 4 180.0000771 4.6024000 2
18403 18404 18405 18406 1 180.0000771 15.1670000 2
18403 18404 18405 18407 1 180.0000771 15.1670000 2
18406 18404 18405 18407 4 180.0000771 4.6024000 2
18403 18404 18413 18405 4 180.0000771 4.6024000 2
18403 18404 18413 18411 1 180.0000771 15.1670000 2
18403 18404 18413 18414 1 180.0000771 15.1670000 2
18405 18404 18413 18411 1 180.0000771 15.1670000 2
18405 18404 18413 18414 1 180.0000771 15.1670000 2
18406 18405 18404 18413 1 180.0000771 15.1670000 2
18407 18405 18404 18413 1 180.0000771 15.1670000 2
18404 18405 18407 18408 1 180.0000771 15.1670000 2
18404 18405 18407 18409 1 180.0000771 15.1670000 2
18406 18405 18407 18408 1 180.0000771 15.1670000 2
18406 18405 18407 18409 1 180.0000771 15.1670000 2
18405 18407 18409 18410 1 180.0000771 15.1670000 2
18405 18407 18409 18411 1 180.0000771 15.1670000 2
18408 18407 18409 18410 1 180.0000771 15.1670000 2
18408 18407 18409 18411 1 180.0000771 15.1670000 2
18405 18409 18407 18408 4 180.0000771 4.6024000 2
18407 18409 18411 18412 1 180.0000771 15.1670000 2
18407 18409 18411 18413 1 180.0000771 15.1670000 2
18410 18409 18411 18412 1 180.0000771 15.1670000 2
18410 18409 18411 18413 1 180.0000771 15.1670000 2
18407 18411 18409 18410 4 180.0000771 4.6024000 2
18404 18411 18413 18414 4 180.0000771 4.6024000 2
18409 18411 18413 18414 1 180.0000771 15.1670000 2
18412 18411 18413 18414 1 180.0000771 15.1670000 2
18404 18413 18411 18409 1 180.0000771 15.1670000 2
18404 18413 18411 18412 1 180.0000771 15.1670000 2
18409 18413 18411 18412 4 180.0000771 4.6024000 2
18417 18418 18419 18420 1 180.0000771 15.1670000 2
18417 18418 18419 18421 1 180.0000771 15.1670000 2
18420 18418 18419 18421 4 180.0000771 4.6024000 2
18417 18418 18427 18419 4 180.0000771 4.6024000 2
18417 18418 18427 18425 1 180.0000771 15.1670000 2
18417 18418 18427 18428 1 180.0000771 15.1670000 2
18419 18418 18427 18425 1 180.0000771 15.1670000 2
18419 18418 18427 18428 1 180.0000771 15.1670000 2
18420 18419 18418 18427 1 180.0000771 15.1670000 2
18421 18419 18418 18427 1 180.0000771 15.1670000 2
18418 18419 18421 18422 1 180.0000771 15.1670000 2
18418 18419 18421 18423 1 180.0000771 15.1670000 2
18420 18419 18421 18422 1 180.0000771 15.1670000 2
18420 18419 18421 18423 1 180.0000771 15.1670000 2
18419 18421 18423 18424 1 180.0000771 15.1670000 2
18419 18421 18423 18425 1 180.0000771 15.1670000 2
18422 18421 18423 18424 1 180.0000771 15.1670000 2
18422 18421 18423 18425 1 180.0000771 15.1670000 2
18419 18423 18421 18422 4 180.0000771 4.6024000 2
18421 18423 18425 18426 1 180.0000771 15.1670000 2
18421 18423 18425 18427 1 180.0000771 15.1670000 2
18424 18423 18425 18426 1 180.0000771 15.1670000 2
18424 18423 18425 18427 1 180.0000771 15.1670000 2
18421 18425 18423 18424 4 180.0000771 4.6024000 2
18418 18425 18427 18428 4 180.0000771 4.6024000 2
18423 18425 18427 18428 1 180.0000771 15.1670000 2
18426 18425 18427 18428 1 180.0000771 15.1670000 2
18418 18427 18425 18423 1 180.0000771 15.1670000 2
18418 18427 18425 18426 1 180.0000771 15.1670000 2
18423 18427 18425 18426 4 180.0000771 4.6024000 2
18431 18432 18433 18434 1 180.0000771 15.1670000 2
18431 18432 18433 18435 1 180.0000771 15.1670000 2
18434 18432 18433 18435 4 180.0000771 4.6024000 2
18431 18432 18441 18433 4 180.0000771 4.6024000 2
18431 18432 18441 18439 1 180.0000771 15.1670000 2
18431 18432 18441 18442 1 180.0000771 15.1670000 2
18433 18432 18441 18439 1 180.0000771 15.1670000 2
18433 18432 18441 18442 1 180.0000771 15.1670000 2
18434 18433 18432 18441 1 180.0000771 15.1670000 2
18435 18433 18432 18441 1 180.0000771 15.1670000 2
18432 18433 18435 18436 1 180.0000771 15.1670000 2
18432 18433 18435 18437 1 180.0000771 15.1670000 2
18434 18433 18435 18436 1 180.0000771 15.1670000 2
18434 18433 18435 18437 1 180.0000771 15.1670000 2
18433 18435 18437 18438 1 180.0000771 15.1670000 2
18433 18435 18437 18439 1 180.0000771 15.1670000 2
18436 18435 18437 18438 1 180.0000771 15.1670000 2
18436 18435 18437 18439 1 180.0000771 15.1670000 2
18433 18437 18435 18436 4 180.0000771 4.6024000 2
18435 18437 18439 18440 1 180.0000771 15.1670000 2
18435 18437 18439 18441 1 180.0000771 15.1670000 2
18438 18437 18439 18440 1 180.0000771 15.1670000 2
18438 18437 18439 18441 1 180.0000771 15.1670000 2
18435 18439 18437 18438 4 180.0000771 4.6024000 2
18432 18439 18441 18442 4 180.0000771 4.6024000 2
18437 18439 18441 18442 1 180.0000771 15.1670000 2
18440 18439 18441 18442 1 180.0000771 15.1670000 2
18432 18441 18439 18437 1 180.0000771 15.1670000 2
18432 18441 18439 18440 1 180.0000771 15.1670000 2
18437 18441 18439 18440 4 180.0000771 4.6024000 2
18445 18446 18447 18448 1 180.0000771 15.1670000 2
18445 18446 18447 18449 1 180.0000771 15.1670000 2
18448 18446 18447 18449 4 180.0000771 4.6024000 2
18445 18446 18455 18447 4 180.0000771 4.6024000 2
18445 18446 18455 18453 1 180.0000771 15.1670000 2
18445 18446 18455 18456 1 180.0000771 15.1670000 2
18447 18446 18455 18453 1 180.0000771 15.1670000 2
18447 18446 18455 18456 1 180.0000771 15.1670000 2
18448 18447 18446 18455 1 180.0000771 15.1670000 2
18449 18447 18446 18455 1 180.0000771 15.1670000 2
18446 18447 18449 18450 1 180.0000771 15.1670000 2
18446 18447 18449 18451 1 180.0000771 15.1670000 2
18448 18447 18449 18450 1 180.0000771 15.1670000 2
18448 18447 18449 18451 1 180.0000771 15.1670000 2
18447 18449 18451 18452 1 180.0000771 15.1670000 2
18447 18449 18451 18453 1 180.0000771 15.1670000 2
18450 18449 18451 18452 1 180.0000771 15.1670000 2
18450 18449 18451 18453 1 180.0000771 15.1670000 2
18447 18451 18449 18450 4 180.0000771 4.6024000 2
18449 18451 18453 18454 1 180.0000771 15.1670000 2
18449 18451 18453 18455 1 180.0000771 15.1670000 2
18452 18451 18453 18454 1 180.0000771 15.1670000 2
18452 18451 18453 18455 1 180.0000771 15.1670000 2
18449 18453 18451 18452 4 180.0000771 4.6024000 2
18446 18453 18455 18456 4 180.0000771 4.6024000 2
18451 18453 18455 18456 1 180.0000771 15.1670000 2
18454 18453 18455 18456 1 180.0000771 15.1670000 2
18446 18455 18453 18451 1 180.0000771 15.1670000 2
18446 18455 18453 18454 1 180.0000771 15.1670000 2
18451 18455 18453 18454 4 180.0000771 4.6024000 2
18459 18460 18461 18462 1 180.0000771 15.1670000 2
18459 18460 18461 18463 1 180.0000771 15.1670000 2
18462 18460 18461 18463 4 180.0000771 4.6024000 2
18459 18460 18469 18461 4 180.0000771 4.6024000 2
18459 18460 18469 18467 1 180.0000771 15.1670000 2
18459 18460 18469 18470 1 180.0000771 15.1670000 2
18461 18460 18469 18467 1 180.0000771 15.1670000 2
18461 18460 18469 18470 1 180.0000771 15.1670000 2
18462 18461 18460 18469 1 180.0000771 15.1670000 2
18463 18461 18460 18469 1 180.0000771 15.1670000 2
18460 18461 18463 18464 1 180.0000771 15.1670000 2
18460 18461 18463 18465 1 180.0000771 15.1670000 2
18462 18461 18463 18464 1 180.0000771 15.1670000 2
18462 18461 18463 18465 1 180.0000771 15.1670000 2
18461 18463 18465 18466 1 180.0000771 15.1670000 2
18461 18463 18465 18467 1 180.0000771 15.1670000 2
18464 18463 18465 18466 1 180.0000771 15.1670000 2
18464 18463 18465 18467 1 180.0000771 15.1670000 2
18461 18465 18463 18464 4 180.0000771 4.6024000 2
18463 18465 18467 18468 1 180.0000771 15.1670000 2
18463 18465 18467 18469 1 180.0000771 15.1670000 2
18466 18465 18467 18468 1 180.0000771 15.1670000 2
18466 18465 18467 18469 1 180.0000771 15.1670000 2
18463 18467 18465 18466 4 180.0000771 4.6024000 2
18460 18467 18469 18470 4 180.0000771 4.6024000 2
18465 18467 18469 18470 1 180.0000771 15.1670000 2
18468 18467 18469 18470 1 180.0000771 15.1670000 2
18460 18469 18467 18465 1 180.0000771 15.1670000 2
18460 18469 18467 18468 1 180.0000771 15.1670000 2
18465 18469 18467 18468 4 180.0000771 4.6024000 2
18471 18472 18473 18474 1 180.0000771 15.1670000 2
18471 18472 18473 18475 1 180.0000771 15.1670000 2
18474 18472 18473 18475 4 180.0000771 4.6024000 2
18471 18472 18481 18473 4 180.0000771 4.6024000 2
18471 18472 18481 18479 1 180.0000771 15.1670000 2
18471 18472 18481 18482 1 180.0000771 15.1670000 2
18473 18472 18481 18479 1 180.0000771 15.1670000 2
18473 18472 18481 18482 1 180.0000771 15.1670000 2
18474 18473 18472 18481 1 180.0000771 15.1670000 2
18475 18473 18472 18481 1 180.0000771 15.1670000 2
18472 18473 18475 18476 1 180.0000771 15.1670000 2
18472 18473 18475 18477 1 180.0000771 15.1670000 2
18474 18473 18475 18476 1 180.0000771 15.1670000 2
18474 18473 18475 18477 1 180.0000771 15.1670000 2
18473 18475 18477 18478 1 180.0000771 15.1670000 2
18473 18475 18477 18479 1 180.0000771 15.1670000 2
18476 18475 18477 18478 1 180.0000771 15.1670000 2
18476 18475 18477 18479 1 180.0000771 15.1670000 2
18473 18477 18475 18476 4 180.0000771 4.6024000 2
18475 18477 18479 18480 1 180.0000771 15.1670000 2
18475 18477 18479 18481 1 180.0000771 15.1670000 2
18478 18477 18479 18480 1 180.0000771 15.1670000 2
18478 18477 18479 18481 1 180.0000771 15.1670000 2
18475 18479 18477 18478 4 180.0000771 4.6024000 2
18472 18479 18481 18482 4 180.0000771 4.6024000 2
18477 18479 18481 18482 1 180.0000771 15.1670000 2
18480 18479 18481 18482 1 180.0000771 15.1670000 2
18472 18481 18479 18477 1 180.0000771 15.1670000 2
18472 18481 18479 18480 1 180.0000771 15.1670000 2
18477 18481 18479 18480 4 180.0000771 4.6024000 2
18483 18484 18485 18486 1 180.0000771 15.1670000 2
18483 18484 18485 18487 1 180.0000771 15.1670000 2
18486 18484 18485 18487 4 180.0000771 4.6024000 2
18483 18484 18493 18485 4 180.0000771 4.6024000 2
18483 18484 18493 18491 1 180.0000771 15.1670000 2
18483 18484 18493 18494 1 180.0000771 15.1670000 2
18485 18484 18493 18491 1 180.0000771 15.1670000 2
18485 18484 18493 18494 1 180.0000771 15.1670000 2
18486 18485 18484 18493 1 180.0000771 15.1670000 2
18487 18485 18484 18493 1 180.0000771 15.1670000 2
18484 18485 18487 18488 1 180.0000771 15.1670000 2
18484 18485 18487 18489 1 180.0000771 15.1670000 2
18486 18485 18487 18488 1 180.0000771 15.1670000 2
18486 18485 18487 18489 1 180.0000771 15.1670000 2
18485 18487 18489 18490 1 180.0000771 15.1670000 2
18485 18487 18489 18491 1 180.0000771 15.1670000 2
18488 18487 18489 18490 1 180.0000771 15.1670000 2
18488 18487 18489 18491 1 180.0000771 15.1670000 2
18485 18489 18487 18488 4 180.0000771 4.6024000 2
18487 18489 18491 18492 1 180.0000771 15.1670000 2
18487 18489 18491 18493 1 180.0000771 15.1670000 2
18490 18489 18491 18492 1 180.0000771 15.1670000 2
18490 18489 18491 18493 1 180.0000771 15.1670000 2
18487 18491 18489 18490 4 180.0000771 4.6024000 2
18484 18491 18493 18494 4 180.0000771 4.6024000 2
18489 18491 18493 18494 1 180.0000771 15.1670000 2
18492 18491 18493 18494 1 180.0000771 15.1670000 2
18484 18493 18491 18489 1 180.0000771 15.1670000 2
18484 18493 18491 18492 1 180.0000771 15.1670000 2
18489 18493 18491 18492 4 180.0000771 4.6024000 2
18495 18496 18497 18498 1 180.0000771 15.1670000 2
18495 18496 18497 18499 1 180.0000771 15.1670000 2
18498 18496 18497 18499 4 180.0000771 4.6024000 2
18495 18496 18505 18497 4 180.0000771 4.6024000 2
18495 18496 18505 18503 1 180.0000771 15.1670000 2
18495 18496 18505 18506 1 180.0000771 15.1670000 2
18497 18496 18505 18503 1 180.0000771 15.1670000 2
18497 18496 18505 18506 1 180.0000771 15.1670000 2
18498 18497 18496 18505 1 180.0000771 15.1670000 2
18499 18497 18496 18505 1 180.0000771 15.1670000 2
18496 18497 18499 18500 1 180.0000771 15.1670000 2
18496 18497 18499 18501 1 180.0000771 15.1670000 2
18498 18497 18499 18500 1 180.0000771 15.1670000 2
18498 18497 18499 18501 1 180.0000771 15.1670000 2
18497 18499 18501 18502 1 180.0000771 15.1670000 2
18497 18499 18501 18503 1 180.0000771 15.1670000 2
18500 18499 18501 18502 1 180.0000771 15.1670000 2
18500 18499 18501 18503 1 180.0000771 15.1670000 2
18497 18501 18499 18500 4 180.0000771 4.6024000 2
18499 18501 18503 18504 1 180.0000771 15.1670000 2
18499 18501 18503 18505 1 180.0000771 15.1670000 2
18502 18501 18503 18504 1 180.0000771 15.1670000 2
18502 18501 18503 18505 1 180.0000771 15.1670000 2
18499 18503 18501 18502 4 180.0000771 4.6024000 2
18496 18503 18505 18506 4 180.0000771 4.6024000 2
18501 18503 18505 18506 1 180.0000771 15.1670000 2
18504 18503 18505 18506 1 180.0000771 15.1670000 2
18496 18505 18503 18501 1 180.0000771 15.1670000 2
18496 18505 18503 18504 1 180.0000771 15.1670000 2
18501 18505 18503 18504 4 180.0000771 4.6024000 2
18507 18508 18509 18510 1 180.0000771 15.1670000 2
18507 18508 18509 18511 1 180.0000771 15.1670000 2
18510 18508 18509 18511 4 180.0000771 4.6024000 2
18507 18508 18517 18509 4 180.0000771 4.6024000 2
18507 18508 18517 18515 1 180.0000771 15.1670000 2
18507 18508 18517 18518 1 180.0000771 15.1670000 2
18509 18508 18517 18515 1 180.0000771 15.1670000 2
18509 18508 18517 18518 1 180.0000771 15.1670000 2
18510 18509 18508 18517 1 180.0000771 15.1670000 2
18511 18509 18508 18517 1 180.0000771 15.1670000 2
18508 18509 18511 18512 1 180.0000771 15.1670000 2
18508 18509 18511 18513 1 180.0000771 15.1670000 2
18510 18509 18511 18512 1 180.0000771 15.1670000 2
18510 18509 18511 18513 1 180.0000771 15.1670000 2
18509 18511 18513 18514 1 180.0000771 15.1670000 2
18509 18511 18513 18515 1 180.0000771 15.1670000 2
18512 18511 18513 18514 1 180.0000771 15.1670000 2
18512 18511 18513 18515 1 180.0000771 15.1670000 2
18509 18513 18511 18512 4 180.0000771 4.6024000 2
18511 18513 18515 18516 1 180.0000771 15.1670000 2
18511 18513 18515 18517 1 180.0000771 15.1670000 2
18514 18513 18515 18516 1 180.0000771 15.1670000 2
18514 18513 18515 18517 1 180.0000771 15.1670000 2
18511 18515 18513 18514 4 180.0000771 4.6024000 2
18508 18515 18517 18518 4 180.0000771 4.6024000 2
18513 18515 18517 18518 1 180.0000771 15.1670000 2
18516 18515 18517 18518 1 180.0000771 15.1670000 2
18508 18517 18515 18513 1 180.0000771 15.1670000 2
18508 18517 18515 18516 1 180.0000771 15.1670000 2
18513 18517 18515 18516 4 180.0000771 4.6024000 2
18519 18520 18521 18522 1 180.0000771 15.1670000 2
18519 18520 18521 18523 1 180.0000771 15.1670000 2
18522 18520 18521 18523 4 180.0000771 4.6024000 2
18519 18520 18529 18521 4 180.0000771 4.6024000 2
18519 18520 18529 18527 1 180.0000771 15.1670000 2
18519 18520 18529 18530 1 180.0000771 15.1670000 2
18521 18520 18529 18527 1 180.0000771 15.1670000 2
18521 18520 18529 18530 1 180.0000771 15.1670000 2
18522 18521 18520 18529 1 180.0000771 15.1670000 2
18523 18521 18520 18529 1 180.0000771 15.1670000 2
18520 18521 18523 18524 1 180.0000771 15.1670000 2
18520 18521 18523 18525 1 180.0000771 15.1670000 2
18522 18521 18523 18524 1 180.0000771 15.1670000 2
18522 18521 18523 18525 1 180.0000771 15.1670000 2
18521 18523 18525 18526 1 180.0000771 15.1670000 2
18521 18523 18525 18527 1 180.0000771 15.1670000 2
18524 18523 18525 18526 1 180.0000771 15.1670000 2
18524 18523 18525 18527 1 180.0000771 15.1670000 2
18521 18525 18523 18524 4 180.0000771 4.6024000 2
18523 18525 18527 18528 1 180.0000771 15.1670000 2
18523 18525 18527 18529 1 180.0000771 15.1670000 2
18526 18525 18527 18528 1 180.0000771 15.1670000 2
18526 18525 18527 18529 1 180.0000771 15.1670000 2
18523 18527 18525 18526 4 180.0000771 4.6024000 2
18520 18527 18529 18530 4 180.0000771 4.6024000 2
18525 18527 18529 18530 1 180.0000771 15.1670000 2
18528 18527 18529 18530 1 180.0000771 15.1670000 2
18520 18529 18527 18525 1 180.0000771 15.1670000 2
18520 18529 18527 18528 1 180.0000771 15.1670000 2
18525 18529 18527 18528 4 180.0000771 4.6024000 2
18531 18532 18533 18534 1 180.0000771 15.1670000 2
18531 18532 18533 18535 1 180.0000771 15.1670000 2
18534 18532 18533 18535 4 180.0000771 4.6024000 2
18531 18532 18541 18533 4 180.0000771 4.6024000 2
18531 18532 18541 18539 1 180.0000771 15.1670000 2
18531 18532 18541 18542 1 180.0000771 15.1670000 2
18533 18532 18541 18539 1 180.0000771 15.1670000 2
18533 18532 18541 18542 1 180.0000771 15.1670000 2
18534 18533 18532 18541 1 180.0000771 15.1670000 2
18535 18533 18532 18541 1 180.0000771 15.1670000 2
18532 18533 18535 18536 1 180.0000771 15.1670000 2
18532 18533 18535 18537 1 180.0000771 15.1670000 2
18534 18533 18535 18536 1 180.0000771 15.1670000 2
18534 18533 18535 18537 1 180.0000771 15.1670000 2
18533 18535 18537 18538 1 180.0000771 15.1670000 2
18533 18535 18537 18539 1 180.0000771 15.1670000 2
18536 18535 18537 18538 1 180.0000771 15.1670000 2
18536 18535 18537 18539 1 180.0000771 15.1670000 2
18533 18537 18535 18536 4 180.0000771 4.6024000 2
18535 18537 18539 18540 1 180.0000771 15.1670000 2
18535 18537 18539 18541 1 180.0000771 15.1670000 2
18538 18537 18539 18540 1 180.0000771 15.1670000 2
18538 18537 18539 18541 1 180.0000771 15.1670000 2
18535 18539 18537 18538 4 180.0000771 4.6024000 2
18532 18539 18541 18542 4 180.0000771 4.6024000 2
18537 18539 18541 18542 1 180.0000771 15.1670000 2
18540 18539 18541 18542 1 180.0000771 15.1670000 2
18532 18541 18539 18537 1 180.0000771 15.1670000 2
18532 18541 18539 18540 1 180.0000771 15.1670000 2
18537 18541 18539 18540 4 180.0000771 4.6024000 2
18543 18544 18545 18546 1 180.0000771 15.1670000 2
18543 18544 18545 18547 1 180.0000771 15.1670000 2
18546 18544 18545 18547 4 180.0000771 4.6024000 2
18543 18544 18553 18545 4 180.0000771 4.6024000 2
18543 18544 18553 18551 1 180.0000771 15.1670000 2
18543 18544 18553 18554 1 180.0000771 15.1670000 2
18545 18544 18553 18551 1 180.0000771 15.1670000 2
18545 18544 18553 18554 1 180.0000771 15.1670000 2
18546 18545 18544 18553 1 180.0000771 15.1670000 2
18547 18545 18544 18553 1 180.0000771 15.1670000 2
18544 18545 18547 18548 1 180.0000771 15.1670000 2
18544 18545 18547 18549 1 180.0000771 15.1670000 2
18546 18545 18547 18548 1 180.0000771 15.1670000 2
18546 18545 18547 18549 1 180.0000771 15.1670000 2
18545 18547 18549 18550 1 180.0000771 15.1670000 2
18545 18547 18549 18551 1 180.0000771 15.1670000 2
18548 18547 18549 18550 1 180.0000771 15.1670000 2
18548 18547 18549 18551 1 180.0000771 15.1670000 2
18545 18549 18547 18548 4 180.0000771 4.6024000 2
18547 18549 18551 18552 1 180.0000771 15.1670000 2
18547 18549 18551 18553 1 180.0000771 15.1670000 2
18550 18549 18551 18552 1 180.0000771 15.1670000 2
18550 18549 18551 18553 1 180.0000771 15.1670000 2
18547 18551 18549 18550 4 180.0000771 4.6024000 2
18544 18551 18553 18554 4 180.0000771 4.6024000 2
18549 18551 18553 18554 1 180.0000771 15.1670000 2
18552 18551 18553 18554 1 180.0000771 15.1670000 2
18544 18553 18551 18549 1 180.0000771 15.1670000 2
18544 18553 18551 18552 1 180.0000771 15.1670000 2
18549 18553 18551 18552 4 180.0000771 4.6024000 2
18555 18556 18557 18558 1 180.0000771 15.1670000 2
18555 18556 18557 18559 1 180.0000771 15.1670000 2
18558 18556 18557 18559 4 180.0000771 4.6024000 2
18555 18556 18565 18557 4 180.0000771 4.6024000 2
18555 18556 18565 18563 1 180.0000771 15.1670000 2
18555 18556 18565 18566 1 180.0000771 15.1670000 2
18557 18556 18565 18563 1 180.0000771 15.1670000 2
18557 18556 18565 18566 1 180.0000771 15.1670000 2
18558 18557 18556 18565 1 180.0000771 15.1670000 2
18559 18557 18556 18565 1 180.0000771 15.1670000 2
18556 18557 18559 18560 1 180.0000771 15.1670000 2
18556 18557 18559 18561 1 180.0000771 15.1670000 2
18558 18557 18559 18560 1 180.0000771 15.1670000 2
18558 18557 18559 18561 1 180.0000771 15.1670000 2
18557 18559 18561 18562 1 180.0000771 15.1670000 2
18557 18559 18561 18563 1 180.0000771 15.1670000 2
18560 18559 18561 18562 1 180.0000771 15.1670000 2
18560 18559 18561 18563 1 180.0000771 15.1670000 2
18557 18561 18559 18560 4 180.0000771 4.6024000 2
18559 18561 18563 18564 1 180.0000771 15.1670000 2
18559 18561 18563 18565 1 180.0000771 15.1670000 2
18562 18561 18563 18564 1 180.0000771 15.1670000 2
18562 18561 18563 18565 1 180.0000771 15.1670000 2
18559 18563 18561 18562 4 180.0000771 4.6024000 2
18556 18563 18565 18566 4 180.0000771 4.6024000 2
18561 18563 18565 18566 1 180.0000771 15.1670000 2
18564 18563 18565 18566 1 180.0000771 15.1670000 2
18556 18565 18563 18561 1 180.0000771 15.1670000 2
18556 18565 18563 18564 1 180.0000771 15.1670000 2
18561 18565 18563 18564 4 180.0000771 4.6024000 2
18567 18568 18569 18570 1 180.0000771 15.1670000 2
18567 18568 18569 18571 1 180.0000771 15.1670000 2
18570 18568 18569 18571 4 180.0000771 4.6024000 2
18567 18568 18577 18569 4 180.0000771 4.6024000 2
18567 18568 18577 18575 1 180.0000771 15.1670000 2
18567 18568 18577 18578 1 180.0000771 15.1670000 2
18569 18568 18577 18575 1 180.0000771 15.1670000 2
18569 18568 18577 18578 1 180.0000771 15.1670000 2
18570 18569 18568 18577 1 180.0000771 15.1670000 2
18571 18569 18568 18577 1 180.0000771 15.1670000 2
18568 18569 18571 18572 1 180.0000771 15.1670000 2
18568 18569 18571 18573 1 180.0000771 15.1670000 2
18570 18569 18571 18572 1 180.0000771 15.1670000 2
18570 18569 18571 18573 1 180.0000771 15.1670000 2
18569 18571 18573 18574 1 180.0000771 15.1670000 2
18569 18571 18573 18575 1 180.0000771 15.1670000 2
18572 18571 18573 18574 1 180.0000771 15.1670000 2
18572 18571 18573 18575 1 180.0000771 15.1670000 2
18569 18573 18571 18572 4 180.0000771 4.6024000 2
18571 18573 18575 18576 1 180.0000771 15.1670000 2
18571 18573 18575 18577 1 180.0000771 15.1670000 2
18574 18573 18575 18576 1 180.0000771 15.1670000 2
18574 18573 18575 18577 1 180.0000771 15.1670000 2
18571 18575 18573 18574 4 180.0000771 4.6024000 2
18568 18575 18577 18578 4 180.0000771 4.6024000 2
18573 18575 18577 18578 1 180.0000771 15.1670000 2
18576 18575 18577 18578 1 180.0000771 15.1670000 2
18568 18577 18575 18573 1 180.0000771 15.1670000 2
18568 18577 18575 18576 1 180.0000771 15.1670000 2
18573 18577 18575 18576 4 180.0000771 4.6024000 2
18579 18580 18581 18582 1 180.0000771 15.1670000 2
18579 18580 18581 18583 1 180.0000771 15.1670000 2
18582 18580 18581 18583 4 180.0000771 4.6024000 2
18579 18580 18589 18581 4 180.0000771 4.6024000 2
18579 18580 18589 18587 1 180.0000771 15.1670000 2
18579 18580 18589 18590 1 180.0000771 15.1670000 2
18581 18580 18589 18587 1 180.0000771 15.1670000 2
18581 18580 18589 18590 1 180.0000771 15.1670000 2
18582 18581 18580 18589 1 180.0000771 15.1670000 2
18583 18581 18580 18589 1 180.0000771 15.1670000 2
18580 18581 18583 18584 1 180.0000771 15.1670000 2
18580 18581 18583 18585 1 180.0000771 15.1670000 2
18582 18581 18583 18584 1 180.0000771 15.1670000 2
18582 18581 18583 18585 1 180.0000771 15.1670000 2
18581 18583 18585 18586 1 180.0000771 15.1670000 2
18581 18583 18585 18587 1 180.0000771 15.1670000 2
18584 18583 18585 18586 1 180.0000771 15.1670000 2
18584 18583 18585 18587 1 180.0000771 15.1670000 2
18581 18585 18583 18584 4 180.0000771 4.6024000 2
18583 18585 18587 18588 1 180.0000771 15.1670000 2
18583 18585 18587 18589 1 180.0000771 15.1670000 2
18586 18585 18587 18588 1 180.0000771 15.1670000 2
18586 18585 18587 18589 1 180.0000771 15.1670000 2
18583 18587 18585 18586 4 180.0000771 4.6024000 2
18580 18587 18589 18590 4 180.0000771 4.6024000 2
18585 18587 18589 18590 1 180.0000771 15.1670000 2
18588 18587 18589 18590 1 180.0000771 15.1670000 2
18580 18589 18587 18585 1 180.0000771 15.1670000 2
18580 18589 18587 18588 1 180.0000771 15.1670000 2
18585 18589 18587 18588 4 180.0000771 4.6024000 2
18591 18592 18593 18594 1 180.0000771 15.1670000 2
18591 18592 18593 18595 1 180.0000771 15.1670000 2
18594 18592 18593 18595 4 180.0000771 4.6024000 2
18591 18592 18601 18593 4 180.0000771 4.6024000 2
18591 18592 18601 18599 1 180.0000771 15.1670000 2
18591 18592 18601 18602 1 180.0000771 15.1670000 2
18593 18592 18601 18599 1 180.0000771 15.1670000 2
18593 18592 18601 18602 1 180.0000771 15.1670000 2
18594 18593 18592 18601 1 180.0000771 15.1670000 2
18595 18593 18592 18601 1 180.0000771 15.1670000 2
18592 18593 18595 18596 1 180.0000771 15.1670000 2
18592 18593 18595 18597 1 180.0000771 15.1670000 2
18594 18593 18595 18596 1 180.0000771 15.1670000 2
18594 18593 18595 18597 1 180.0000771 15.1670000 2
18593 18595 18597 18598 1 180.0000771 15.1670000 2
18593 18595 18597 18599 1 180.0000771 15.1670000 2
18596 18595 18597 18598 1 180.0000771 15.1670000 2
18596 18595 18597 18599 1 180.0000771 15.1670000 2
18593 18597 18595 18596 4 180.0000771 4.6024000 2
18595 18597 18599 18600 1 180.0000771 15.1670000 2
18595 18597 18599 18601 1 180.0000771 15.1670000 2
18598 18597 18599 18600 1 180.0000771 15.1670000 2
18598 18597 18599 18601 1 180.0000771 15.1670000 2
18595 18599 18597 18598 4 180.0000771 4.6024000 2
18592 18599 18601 18602 4 180.0000771 4.6024000 2
18597 18599 18601 18602 1 180.0000771 15.1670000 2
18600 18599 18601 18602 1 180.0000771 15.1670000 2
18592 18601 18599 18597 1 180.0000771 15.1670000 2
18592 18601 18599 18600 1 180.0000771 15.1670000 2
18597 18601 18599 18600 4 180.0000771 4.6024000 2
18603 18604 18605 18606 1 180.0000771 15.1670000 2
18603 18604 18605 18607 1 180.0000771 15.1670000 2
18606 18604 18605 18607 4 180.0000771 4.6024000 2
18603 18604 18613 18605 4 180.0000771 4.6024000 2
18603 18604 18613 18611 1 180.0000771 15.1670000 2
18603 18604 18613 18614 1 180.0000771 15.1670000 2
18605 18604 18613 18611 1 180.0000771 15.1670000 2
18605 18604 18613 18614 1 180.0000771 15.1670000 2
18606 18605 18604 18613 1 180.0000771 15.1670000 2
18607 18605 18604 18613 1 180.0000771 15.1670000 2
18604 18605 18607 18608 1 180.0000771 15.1670000 2
18604 18605 18607 18609 1 180.0000771 15.1670000 2
18606 18605 18607 18608 1 180.0000771 15.1670000 2
18606 18605 18607 18609 1 180.0000771 15.1670000 2
18605 18607 18609 18610 1 180.0000771 15.1670000 2
18605 18607 18609 18611 1 180.0000771 15.1670000 2
18608 18607 18609 18610 1 180.0000771 15.1670000 2
18608 18607 18609 18611 1 180.0000771 15.1670000 2
18605 18609 18607 18608 4 180.0000771 4.6024000 2
18607 18609 18611 18612 1 180.0000771 15.1670000 2
18607 18609 18611 18613 1 180.0000771 15.1670000 2
18610 18609 18611 18612 1 180.0000771 15.1670000 2
18610 18609 18611 18613 1 180.0000771 15.1670000 2
18607 18611 18609 18610 4 180.0000771 4.6024000 2
18604 18611 18613 18614 4 180.0000771 4.6024000 2
18609 18611 18613 18614 1 180.0000771 15.1670000 2
18612 18611 18613 18614 1 180.0000771 15.1670000 2
18604 18613 18611 18609 1 180.0000771 15.1670000 2
18604 18613 18611 18612 1 180.0000771 15.1670000 2
18609 18613 18611 18612 4 180.0000771 4.6024000 2
18615 18616 18617 18618 1 180.0000771 15.1670000 2
18615 18616 18617 18619 1 180.0000771 15.1670000 2
18618 18616 18617 18619 4 180.0000771 4.6024000 2
18615 18616 18625 18617 4 180.0000771 4.6024000 2
18615 18616 18625 18623 1 180.0000771 15.1670000 2
18615 18616 18625 18626 1 180.0000771 15.1670000 2
18617 18616 18625 18623 1 180.0000771 15.1670000 2
18617 18616 18625 18626 1 180.0000771 15.1670000 2
18618 18617 18616 18625 1 180.0000771 15.1670000 2
18619 18617 18616 18625 1 180.0000771 15.1670000 2
18616 18617 18619 18620 1 180.0000771 15.1670000 2
18616 18617 18619 18621 1 180.0000771 15.1670000 2
18618 18617 18619 18620 1 180.0000771 15.1670000 2
18618 18617 18619 18621 1 180.0000771 15.1670000 2
18617 18619 18621 18622 1 180.0000771 15.1670000 2
18617 18619 18621 18623 1 180.0000771 15.1670000 2
18620 18619 18621 18622 1 180.0000771 15.1670000 2
18620 18619 18621 18623 1 180.0000771 15.1670000 2
18617 18621 18619 18620 4 180.0000771 4.6024000 2
18619 18621 18623 18624 1 180.0000771 15.1670000 2
18619 18621 18623 18625 1 180.0000771 15.1670000 2
18622 18621 18623 18624 1 180.0000771 15.1670000 2
18622 18621 18623 18625 1 180.0000771 15.1670000 2
18619 18623 18621 18622 4 180.0000771 4.6024000 2
18616 18623 18625 18626 4 180.0000771 4.6024000 2
18621 18623 18625 18626 1 180.0000771 15.1670000 2
18624 18623 18625 18626 1 180.0000771 15.1670000 2
18616 18625 18623 18621 1 180.0000771 15.1670000 2
18616 18625 18623 18624 1 180.0000771 15.1670000 2
18621 18625 18623 18624 4 180.0000771 4.6024000 2
18627 18628 18629 18630 1 180.0000771 15.1670000 2
18627 18628 18629 18631 1 180.0000771 15.1670000 2
18630 18628 18629 18631 4 180.0000771 4.6024000 2
18627 18628 18637 18629 4 180.0000771 4.6024000 2
18627 18628 18637 18635 1 180.0000771 15.1670000 2
18627 18628 18637 18638 1 180.0000771 15.1670000 2
18629 18628 18637 18635 1 180.0000771 15.1670000 2
18629 18628 18637 18638 1 180.0000771 15.1670000 2
18630 18629 18628 18637 1 180.0000771 15.1670000 2
18631 18629 18628 18637 1 180.0000771 15.1670000 2
18628 18629 18631 18632 1 180.0000771 15.1670000 2
18628 18629 18631 18633 1 180.0000771 15.1670000 2
18630 18629 18631 18632 1 180.0000771 15.1670000 2
18630 18629 18631 18633 1 180.0000771 15.1670000 2
18629 18631 18633 18634 1 180.0000771 15.1670000 2
18629 18631 18633 18635 1 180.0000771 15.1670000 2
18632 18631 18633 18634 1 180.0000771 15.1670000 2
18632 18631 18633 18635 1 180.0000771 15.1670000 2
18629 18633 18631 18632 4 180.0000771 4.6024000 2
18631 18633 18635 18636 1 180.0000771 15.1670000 2
18631 18633 18635 18637 1 180.0000771 15.1670000 2
18634 18633 18635 18636 1 180.0000771 15.1670000 2
18634 18633 18635 18637 1 180.0000771 15.1670000 2
18631 18635 18633 18634 4 180.0000771 4.6024000 2
18628 18635 18637 18638 4 180.0000771 4.6024000 2
18633 18635 18637 18638 1 180.0000771 15.1670000 2
18636 18635 18637 18638 1 180.0000771 15.1670000 2
18628 18637 18635 18633 1 180.0000771 15.1670000 2
18628 18637 18635 18636 1 180.0000771 15.1670000 2
18633 18637 18635 18636 4 180.0000771 4.6024000 2
18639 18640 18641 18642 1 180.0000771 15.1670000 2
18639 18640 18641 18643 1 180.0000771 15.1670000 2
18642 18640 18641 18643 4 180.0000771 4.6024000 2
18639 18640 18649 18641 4 180.0000771 4.6024000 2
18639 18640 18649 18647 1 180.0000771 15.1670000 2
18639 18640 18649 18650 1 180.0000771 15.1670000 2
18641 18640 18649 18647 1 180.0000771 15.1670000 2
18641 18640 18649 18650 1 180.0000771 15.1670000 2
18642 18641 18640 18649 1 180.0000771 15.1670000 2
18643 18641 18640 18649 1 180.0000771 15.1670000 2
18640 18641 18643 18644 1 180.0000771 15.1670000 2
18640 18641 18643 18645 1 180.0000771 15.1670000 2
18642 18641 18643 18644 1 180.0000771 15.1670000 2
18642 18641 18643 18645 1 180.0000771 15.1670000 2
18641 18643 18645 18646 1 180.0000771 15.1670000 2
18641 18643 18645 18647 1 180.0000771 15.1670000 2
18644 18643 18645 18646 1 180.0000771 15.1670000 2
18644 18643 18645 18647 1 180.0000771 15.1670000 2
18641 18645 18643 18644 4 180.0000771 4.6024000 2
18643 18645 18647 18648 1 180.0000771 15.1670000 2
18643 18645 18647 18649 1 180.0000771 15.1670000 2
18646 18645 18647 18648 1 180.0000771 15.1670000 2
18646 18645 18647 18649 1 180.0000771 15.1670000 2
18643 18647 18645 18646 4 180.0000771 4.6024000 2
18640 18647 18649 18650 4 180.0000771 4.6024000 2
18645 18647 18649 18650 1 180.0000771 15.1670000 2
18648 18647 18649 18650 1 180.0000771 15.1670000 2
18640 18649 18647 18645 1 180.0000771 15.1670000 2
18640 18649 18647 18648 1 180.0000771 15.1670000 2
18645 18649 18647 18648 4 180.0000771 4.6024000 2
18651 18652 18653 18654 1 180.0000771 15.1670000 2
18651 18652 18653 18655 1 180.0000771 15.1670000 2
18654 18652 18653 18655 4 180.0000771 4.6024000 2
18651 18652 18661 18653 4 180.0000771 4.6024000 2
18651 18652 18661 18659 1 180.0000771 15.1670000 2
18651 18652 18661 18662 1 180.0000771 15.1670000 2
18653 18652 18661 18659 1 180.0000771 15.1670000 2
18653 18652 18661 18662 1 180.0000771 15.1670000 2
18654 18653 18652 18661 1 180.0000771 15.1670000 2
18655 18653 18652 18661 1 180.0000771 15.1670000 2
18652 18653 18655 18656 1 180.0000771 15.1670000 2
18652 18653 18655 18657 1 180.0000771 15.1670000 2
18654 18653 18655 18656 1 180.0000771 15.1670000 2
18654 18653 18655 18657 1 180.0000771 15.1670000 2
18653 18655 18657 18658 1 180.0000771 15.1670000 2
18653 18655 18657 18659 1 180.0000771 15.1670000 2
18656 18655 18657 18658 1 180.0000771 15.1670000 2
18656 18655 18657 18659 1 180.0000771 15.1670000 2
18653 18657 18655 18656 4 180.0000771 4.6024000 2
18655 18657 18659 18660 1 180.0000771 15.1670000 2
18655 18657 18659 18661 1 180.0000771 15.1670000 2
18658 18657 18659 18660 1 180.0000771 15.1670000 2
18658 18657 18659 18661 1 180.0000771 15.1670000 2
18655 18659 18657 18658 4 180.0000771 4.6024000 2
18652 18659 18661 18662 4 180.0000771 4.6024000 2
18657 18659 18661 18662 1 180.0000771 15.1670000 2
18660 18659 18661 18662 1 180.0000771 15.1670000 2
18652 18661 18659 18657 1 180.0000771 15.1670000 2
18652 18661 18659 18660 1 180.0000771 15.1670000 2
18657 18661 18659 18660 4 180.0000771 4.6024000 2
18663 18664 18665 18666 1 180.0000771 15.1670000 2
18663 18664 18665 18667 1 180.0000771 15.1670000 2
18666 18664 18665 18667 4 180.0000771 4.6024000 2
18663 18664 18673 18665 4 180.0000771 4.6024000 2
18663 18664 18673 18671 1 180.0000771 15.1670000 2
18663 18664 18673 18674 1 180.0000771 15.1670000 2
18665 18664 18673 18671 1 180.0000771 15.1670000 2
18665 18664 18673 18674 1 180.0000771 15.1670000 2
18666 18665 18664 18673 1 180.0000771 15.1670000 2
18667 18665 18664 18673 1 180.0000771 15.1670000 2
18664 18665 18667 18668 1 180.0000771 15.1670000 2
18664 18665 18667 18669 1 180.0000771 15.1670000 2
18666 18665 18667 18668 1 180.0000771 15.1670000 2
18666 18665 18667 18669 1 180.0000771 15.1670000 2
18665 18667 18669 18670 1 180.0000771 15.1670000 2
18665 18667 18669 18671 1 180.0000771 15.1670000 2
18668 18667 18669 18670 1 180.0000771 15.1670000 2
18668 18667 18669 18671 1 180.0000771 15.1670000 2
18665 18669 18667 18668 4 180.0000771 4.6024000 2
18667 18669 18671 18672 1 180.0000771 15.1670000 2
18667 18669 18671 18673 1 180.0000771 15.1670000 2
18670 18669 18671 18672 1 180.0000771 15.1670000 2
18670 18669 18671 18673 1 180.0000771 15.1670000 2
18667 18671 18669 18670 4 180.0000771 4.6024000 2
18664 18671 18673 18674 4 180.0000771 4.6024000 2
18669 18671 18673 18674 1 180.0000771 15.1670000 2
18672 18671 18673 18674 1 180.0000771 15.1670000 2
18664 18673 18671 18669 1 180.0000771 15.1670000 2
18664 18673 18671 18672 1 180.0000771 15.1670000 2
18669 18673 18671 18672 4 180.0000771 4.6024000 2
18675 18676 18677 18678 1 180.0000771 15.1670000 2
18675 18676 18677 18679 1 180.0000771 15.1670000 2
18678 18676 18677 18679 4 180.0000771 4.6024000 2
18675 18676 18685 18677 4 180.0000771 4.6024000 2
18675 18676 18685 18683 1 180.0000771 15.1670000 2
18675 18676 18685 18686 1 180.0000771 15.1670000 2
18677 18676 18685 18683 1 180.0000771 15.1670000 2
18677 18676 18685 18686 1 180.0000771 15.1670000 2
18678 18677 18676 18685 1 180.0000771 15.1670000 2
18679 18677 18676 18685 1 180.0000771 15.1670000 2
18676 18677 18679 18680 1 180.0000771 15.1670000 2
18676 18677 18679 18681 1 180.0000771 15.1670000 2
18678 18677 18679 18680 1 180.0000771 15.1670000 2
18678 18677 18679 18681 1 180.0000771 15.1670000 2
18677 18679 18681 18682 1 180.0000771 15.1670000 2
18677 18679 18681 18683 1 180.0000771 15.1670000 2
18680 18679 18681 18682 1 180.0000771 15.1670000 2
18680 18679 18681 18683 1 180.0000771 15.1670000 2
18677 18681 18679 18680 4 180.0000771 4.6024000 2
18679 18681 18683 18684 1 180.0000771 15.1670000 2
18679 18681 18683 18685 1 180.0000771 15.1670000 2
18682 18681 18683 18684 1 180.0000771 15.1670000 2
18682 18681 18683 18685 1 180.0000771 15.1670000 2
18679 18683 18681 18682 4 180.0000771 4.6024000 2
18676 18683 18685 18686 4 180.0000771 4.6024000 2
18681 18683 18685 18686 1 180.0000771 15.1670000 2
18684 18683 18685 18686 1 180.0000771 15.1670000 2
18676 18685 18683 18681 1 180.0000771 15.1670000 2
18676 18685 18683 18684 1 180.0000771 15.1670000 2
18681 18685 18683 18684 4 180.0000771 4.6024000 2
18687 18688 18689 18690 1 180.0000771 15.1670000 2
18687 18688 18689 18691 1 180.0000771 15.1670000 2
18690 18688 18689 18691 4 180.0000771 4.6024000 2
18687 18688 18697 18689 4 180.0000771 4.6024000 2
18687 18688 18697 18695 1 180.0000771 15.1670000 2
18687 18688 18697 18698 1 180.0000771 15.1670000 2
18689 18688 18697 18695 1 180.0000771 15.1670000 2
18689 18688 18697 18698 1 180.0000771 15.1670000 2
18690 18689 18688 18697 1 180.0000771 15.1670000 2
18691 18689 18688 18697 1 180.0000771 15.1670000 2
18688 18689 18691 18692 1 180.0000771 15.1670000 2
18688 18689 18691 18693 1 180.0000771 15.1670000 2
18690 18689 18691 18692 1 180.0000771 15.1670000 2
18690 18689 18691 18693 1 180.0000771 15.1670000 2
18689 18691 18693 18694 1 180.0000771 15.1670000 2
18689 18691 18693 18695 1 180.0000771 15.1670000 2
18692 18691 18693 18694 1 180.0000771 15.1670000 2
18692 18691 18693 18695 1 180.0000771 15.1670000 2
18689 18693 18691 18692 4 180.0000771 4.6024000 2
18691 18693 18695 18696 1 180.0000771 15.1670000 2
18691 18693 18695 18697 1 180.0000771 15.1670000 2
18694 18693 18695 18696 1 180.0000771 15.1670000 2
18694 18693 18695 18697 1 180.0000771 15.1670000 2
18691 18695 18693 18694 4 180.0000771 4.6024000 2
18688 18695 18697 18698 4 180.0000771 4.6024000 2
18693 18695 18697 18698 1 180.0000771 15.1670000 2
18696 18695 18697 18698 1 180.0000771 15.1670000 2
18688 18697 18695 18693 1 180.0000771 15.1670000 2
18688 18697 18695 18696 1 180.0000771 15.1670000 2
18693 18697 18695 18696 4 180.0000771 4.6024000 2
18699 18700 18701 18702 1 180.0000771 15.1670000 2
18699 18700 18701 18703 1 180.0000771 15.1670000 2
18702 18700 18701 18703 4 180.0000771 4.6024000 2
18699 18700 18709 18701 4 180.0000771 4.6024000 2
18699 18700 18709 18707 1 180.0000771 15.1670000 2
18699 18700 18709 18710 1 180.0000771 15.1670000 2
18701 18700 18709 18707 1 180.0000771 15.1670000 2
18701 18700 18709 18710 1 180.0000771 15.1670000 2
18702 18701 18700 18709 1 180.0000771 15.1670000 2
18703 18701 18700 18709 1 180.0000771 15.1670000 2
18700 18701 18703 18704 1 180.0000771 15.1670000 2
18700 18701 18703 18705 1 180.0000771 15.1670000 2
18702 18701 18703 18704 1 180.0000771 15.1670000 2
18702 18701 18703 18705 1 180.0000771 15.1670000 2
18701 18703 18705 18706 1 180.0000771 15.1670000 2
18701 18703 18705 18707 1 180.0000771 15.1670000 2
18704 18703 18705 18706 1 180.0000771 15.1670000 2
18704 18703 18705 18707 1 180.0000771 15.1670000 2
18701 18705 18703 18704 4 180.0000771 4.6024000 2
18703 18705 18707 18708 1 180.0000771 15.1670000 2
18703 18705 18707 18709 1 180.0000771 15.1670000 2
18706 18705 18707 18708 1 180.0000771 15.1670000 2
18706 18705 18707 18709 1 180.0000771 15.1670000 2
18703 18707 18705 18706 4 180.0000771 4.6024000 2
18700 18707 18709 18710 4 180.0000771 4.6024000 2
18705 18707 18709 18710 1 180.0000771 15.1670000 2
18708 18707 18709 18710 1 180.0000771 15.1670000 2
18700 18709 18707 18705 1 180.0000771 15.1670000 2
18700 18709 18707 18708 1 180.0000771 15.1670000 2
18705 18709 18707 18708 4 180.0000771 4.6024000 2
18711 18712 18713 18714 1 180.0000771 15.1670000 2
18711 18712 18713 18715 1 180.0000771 15.1670000 2
18714 18712 18713 18715 4 180.0000771 4.6024000 2
18711 18712 18721 18713 4 180.0000771 4.6024000 2
18711 18712 18721 18719 1 180.0000771 15.1670000 2
18711 18712 18721 18722 1 180.0000771 15.1670000 2
18713 18712 18721 18719 1 180.0000771 15.1670000 2
18713 18712 18721 18722 1 180.0000771 15.1670000 2
18714 18713 18712 18721 1 180.0000771 15.1670000 2
18715 18713 18712 18721 1 180.0000771 15.1670000 2
18712 18713 18715 18716 1 180.0000771 15.1670000 2
18712 18713 18715 18717 1 180.0000771 15.1670000 2
18714 18713 18715 18716 1 180.0000771 15.1670000 2
18714 18713 18715 18717 1 180.0000771 15.1670000 2
18713 18715 18717 18718 1 180.0000771 15.1670000 2
18713 18715 18717 18719 1 180.0000771 15.1670000 2
18716 18715 18717 18718 1 180.0000771 15.1670000 2
18716 18715 18717 18719 1 180.0000771 15.1670000 2
18713 18717 18715 18716 4 180.0000771 4.6024000 2
18715 18717 18719 18720 1 180.0000771 15.1670000 2
18715 18717 18719 18721 1 180.0000771 15.1670000 2
18718 18717 18719 18720 1 180.0000771 15.1670000 2
18718 18717 18719 18721 1 180.0000771 15.1670000 2
18715 18719 18717 18718 4 180.0000771 4.6024000 2
18712 18719 18721 18722 4 180.0000771 4.6024000 2
18717 18719 18721 18722 1 180.0000771 15.1670000 2
18720 18719 18721 18722 1 180.0000771 15.1670000 2
18712 18721 18719 18717 1 180.0000771 15.1670000 2
18712 18721 18719 18720 1 180.0000771 15.1670000 2
18717 18721 18719 18720 4 180.0000771 4.6024000 2
18723 18724 18725 18726 1 180.0000771 15.1670000 2
18723 18724 18725 18727 1 180.0000771 15.1670000 2
18726 18724 18725 18727 4 180.0000771 4.6024000 2
18723 18724 18733 18725 4 180.0000771 4.6024000 2
18723 18724 18733 18731 1 180.0000771 15.1670000 2
18723 18724 18733 18734 1 180.0000771 15.1670000 2
18725 18724 18733 18731 1 180.0000771 15.1670000 2
18725 18724 18733 18734 1 180.0000771 15.1670000 2
18726 18725 18724 18733 1 180.0000771 15.1670000 2
18727 18725 18724 18733 1 180.0000771 15.1670000 2
18724 18725 18727 18728 1 180.0000771 15.1670000 2
18724 18725 18727 18729 1 180.0000771 15.1670000 2
18726 18725 18727 18728 1 180.0000771 15.1670000 2
18726 18725 18727 18729 1 180.0000771 15.1670000 2
18725 18727 18729 18730 1 180.0000771 15.1670000 2
18725 18727 18729 18731 1 180.0000771 15.1670000 2
18728 18727 18729 18730 1 180.0000771 15.1670000 2
18728 18727 18729 18731 1 180.0000771 15.1670000 2
18725 18729 18727 18728 4 180.0000771 4.6024000 2
18727 18729 18731 18732 1 180.0000771 15.1670000 2
18727 18729 18731 18733 1 180.0000771 15.1670000 2
18730 18729 18731 18732 1 180.0000771 15.1670000 2
18730 18729 18731 18733 1 180.0000771 15.1670000 2
18727 18731 18729 18730 4 180.0000771 4.6024000 2
18724 18731 18733 18734 4 180.0000771 4.6024000 2
18729 18731 18733 18734 1 180.0000771 15.1670000 2
18732 18731 18733 18734 1 180.0000771 15.1670000 2
18724 18733 18731 18729 1 180.0000771 15.1670000 2
18724 18733 18731 18732 1 180.0000771 15.1670000 2
18729 18733 18731 18732 4 180.0000771 4.6024000 2
18735 18736 18737 18738 1 180.0000771 15.1670000 2
18735 18736 18737 18739 1 180.0000771 15.1670000 2
18738 18736 18737 18739 4 180.0000771 4.6024000 2
18735 18736 18745 18737 4 180.0000771 4.6024000 2
18735 18736 18745 18743 1 180.0000771 15.1670000 2
18735 18736 18745 18746 1 180.0000771 15.1670000 2
18737 18736 18745 18743 1 180.0000771 15.1670000 2
18737 18736 18745 18746 1 180.0000771 15.1670000 2
18738 18737 18736 18745 1 180.0000771 15.1670000 2
18739 18737 18736 18745 1 180.0000771 15.1670000 2
18736 18737 18739 18740 1 180.0000771 15.1670000 2
18736 18737 18739 18741 1 180.0000771 15.1670000 2
18738 18737 18739 18740 1 180.0000771 15.1670000 2
18738 18737 18739 18741 1 180.0000771 15.1670000 2
18737 18739 18741 18742 1 180.0000771 15.1670000 2
18737 18739 18741 18743 1 180.0000771 15.1670000 2
18740 18739 18741 18742 1 180.0000771 15.1670000 2
18740 18739 18741 18743 1 180.0000771 15.1670000 2
18737 18741 18739 18740 4 180.0000771 4.6024000 2
18739 18741 18743 18744 1 180.0000771 15.1670000 2
18739 18741 18743 18745 1 180.0000771 15.1670000 2
18742 18741 18743 18744 1 180.0000771 15.1670000 2
18742 18741 18743 18745 1 180.0000771 15.1670000 2
18739 18743 18741 18742 4 180.0000771 4.6024000 2
18736 18743 18745 18746 4 180.0000771 4.6024000 2
18741 18743 18745 18746 1 180.0000771 15.1670000 2
18744 18743 18745 18746 1 180.0000771 15.1670000 2
18736 18745 18743 18741 1 180.0000771 15.1670000 2
18736 18745 18743 18744 1 180.0000771 15.1670000 2
18741 18745 18743 18744 4 180.0000771 4.6024000 2
18747 18748 18749 18750 1 180.0000771 15.1670000 2
18747 18748 18749 18751 1 180.0000771 15.1670000 2
18750 18748 18749 18751 4 180.0000771 4.6024000 2
18747 18748 18757 18749 4 180.0000771 4.6024000 2
18747 18748 18757 18755 1 180.0000771 15.1670000 2
18747 18748 18757 18758 1 180.0000771 15.1670000 2
18749 18748 18757 18755 1 180.0000771 15.1670000 2
18749 18748 18757 18758 1 180.0000771 15.1670000 2
18750 18749 18748 18757 1 180.0000771 15.1670000 2
18751 18749 18748 18757 1 180.0000771 15.1670000 2
18748 18749 18751 18752 1 180.0000771 15.1670000 2
18748 18749 18751 18753 1 180.0000771 15.1670000 2
18750 18749 18751 18752 1 180.0000771 15.1670000 2
18750 18749 18751 18753 1 180.0000771 15.1670000 2
18749 18751 18753 18754 1 180.0000771 15.1670000 2
18749 18751 18753 18755 1 180.0000771 15.1670000 2
18752 18751 18753 18754 1 180.0000771 15.1670000 2
18752 18751 18753 18755 1 180.0000771 15.1670000 2
18749 18753 18751 18752 4 180.0000771 4.6024000 2
18751 18753 18755 18756 1 180.0000771 15.1670000 2
18751 18753 18755 18757 1 180.0000771 15.1670000 2
18754 18753 18755 18756 1 180.0000771 15.1670000 2
18754 18753 18755 18757 1 180.0000771 15.1670000 2
18751 18755 18753 18754 4 180.0000771 4.6024000 2
18748 18755 18757 18758 4 180.0000771 4.6024000 2
18753 18755 18757 18758 1 180.0000771 15.1670000 2
18756 18755 18757 18758 1 180.0000771 15.1670000 2
18748 18757 18755 18753 1 180.0000771 15.1670000 2
18748 18757 18755 18756 1 180.0000771 15.1670000 2
18753 18757 18755 18756 4 180.0000771 4.6024000 2
18759 18760 18761 18762 1 180.0000771 15.1670000 2
18759 18760 18761 18763 1 180.0000771 15.1670000 2
18762 18760 18761 18763 4 180.0000771 4.6024000 2
18759 18760 18769 18761 4 180.0000771 4.6024000 2
18759 18760 18769 18767 1 180.0000771 15.1670000 2
18759 18760 18769 18770 1 180.0000771 15.1670000 2
18761 18760 18769 18767 1 180.0000771 15.1670000 2
18761 18760 18769 18770 1 180.0000771 15.1670000 2
18762 18761 18760 18769 1 180.0000771 15.1670000 2
18763 18761 18760 18769 1 180.0000771 15.1670000 2
18760 18761 18763 18764 1 180.0000771 15.1670000 2
18760 18761 18763 18765 1 180.0000771 15.1670000 2
18762 18761 18763 18764 1 180.0000771 15.1670000 2
18762 18761 18763 18765 1 180.0000771 15.1670000 2
18761 18763 18765 18766 1 180.0000771 15.1670000 2
18761 18763 18765 18767 1 180.0000771 15.1670000 2
18764 18763 18765 18766 1 180.0000771 15.1670000 2
18764 18763 18765 18767 1 180.0000771 15.1670000 2
18761 18765 18763 18764 4 180.0000771 4.6024000 2
18763 18765 18767 18768 1 180.0000771 15.1670000 2
18763 18765 18767 18769 1 180.0000771 15.1670000 2
18766 18765 18767 18768 1 180.0000771 15.1670000 2
18766 18765 18767 18769 1 180.0000771 15.1670000 2
18763 18767 18765 18766 4 180.0000771 4.6024000 2
18760 18767 18769 18770 4 180.0000771 4.6024000 2
18765 18767 18769 18770 1 180.0000771 15.1670000 2
18768 18767 18769 18770 1 180.0000771 15.1670000 2
18760 18769 18767 18765 1 180.0000771 15.1670000 2
18760 18769 18767 18768 1 180.0000771 15.1670000 2
18765 18769 18767 18768 4 180.0000771 4.6024000 2
18771 18772 18773 18774 1 180.0000771 15.1670000 2
18771 18772 18773 18775 1 180.0000771 15.1670000 2
18774 18772 18773 18775 4 180.0000771 4.6024000 2
18771 18772 18781 18773 4 180.0000771 4.6024000 2
18771 18772 18781 18779 1 180.0000771 15.1670000 2
18771 18772 18781 18782 1 180.0000771 15.1670000 2
18773 18772 18781 18779 1 180.0000771 15.1670000 2
18773 18772 18781 18782 1 180.0000771 15.1670000 2
18774 18773 18772 18781 1 180.0000771 15.1670000 2
18775 18773 18772 18781 1 180.0000771 15.1670000 2
18772 18773 18775 18776 1 180.0000771 15.1670000 2
18772 18773 18775 18777 1 180.0000771 15.1670000 2
18774 18773 18775 18776 1 180.0000771 15.1670000 2
18774 18773 18775 18777 1 180.0000771 15.1670000 2
18773 18775 18777 18778 1 180.0000771 15.1670000 2
18773 18775 18777 18779 1 180.0000771 15.1670000 2
18776 18775 18777 18778 1 180.0000771 15.1670000 2
18776 18775 18777 18779 1 180.0000771 15.1670000 2
18773 18777 18775 18776 4 180.0000771 4.6024000 2
18775 18777 18779 18780 1 180.0000771 15.1670000 2
18775 18777 18779 18781 1 180.0000771 15.1670000 2
18778 18777 18779 18780 1 180.0000771 15.1670000 2
18778 18777 18779 18781 1 180.0000771 15.1670000 2
18775 18779 18777 18778 4 180.0000771 4.6024000 2
18772 18779 18781 18782 4 180.0000771 4.6024000 2
18777 18779 18781 18782 1 180.0000771 15.1670000 2
18780 18779 18781 18782 1 180.0000771 15.1670000 2
18772 18781 18779 18777 1 180.0000771 15.1670000 2
18772 18781 18779 18780 1 180.0000771 15.1670000 2
18777 18781 18779 18780 4 180.0000771 4.6024000 2
18783 18784 18785 18786 1 180.0000771 15.1670000 2
18783 18784 18785 18787 1 180.0000771 15.1670000 2
18786 18784 18785 18787 4 180.0000771 4.6024000 2
18783 18784 18793 18785 4 180.0000771 4.6024000 2
18783 18784 18793 18791 1 180.0000771 15.1670000 2
18783 18784 18793 18794 1 180.0000771 15.1670000 2
18785 18784 18793 18791 1 180.0000771 15.1670000 2
18785 18784 18793 18794 1 180.0000771 15.1670000 2
18786 18785 18784 18793 1 180.0000771 15.1670000 2
18787 18785 18784 18793 1 180.0000771 15.1670000 2
18784 18785 18787 18788 1 180.0000771 15.1670000 2
18784 18785 18787 18789 1 180.0000771 15.1670000 2
18786 18785 18787 18788 1 180.0000771 15.1670000 2
18786 18785 18787 18789 1 180.0000771 15.1670000 2
18785 18787 18789 18790 1 180.0000771 15.1670000 2
18785 18787 18789 18791 1 180.0000771 15.1670000 2
18788 18787 18789 18790 1 180.0000771 15.1670000 2
18788 18787 18789 18791 1 180.0000771 15.1670000 2
18785 18789 18787 18788 4 180.0000771 4.6024000 2
18787 18789 18791 18792 1 180.0000771 15.1670000 2
18787 18789 18791 18793 1 180.0000771 15.1670000 2
18790 18789 18791 18792 1 180.0000771 15.1670000 2
18790 18789 18791 18793 1 180.0000771 15.1670000 2
18787 18791 18789 18790 4 180.0000771 4.6024000 2
18784 18791 18793 18794 4 180.0000771 4.6024000 2
18789 18791 18793 18794 1 180.0000771 15.1670000 2
18792 18791 18793 18794 1 180.0000771 15.1670000 2
18784 18793 18791 18789 1 180.0000771 15.1670000 2
18784 18793 18791 18792 1 180.0000771 15.1670000 2
18789 18793 18791 18792 4 180.0000771 4.6024000 2
18795 18796 18797 18798 1 180.0000771 15.1670000 2
18795 18796 18797 18799 1 180.0000771 15.1670000 2
18798 18796 18797 18799 4 180.0000771 4.6024000 2
18795 18796 18805 18797 4 180.0000771 4.6024000 2
18795 18796 18805 18803 1 180.0000771 15.1670000 2
18795 18796 18805 18806 1 180.0000771 15.1670000 2
18797 18796 18805 18803 1 180.0000771 15.1670000 2
18797 18796 18805 18806 1 180.0000771 15.1670000 2
18798 18797 18796 18805 1 180.0000771 15.1670000 2
18799 18797 18796 18805 1 180.0000771 15.1670000 2
18796 18797 18799 18800 1 180.0000771 15.1670000 2
18796 18797 18799 18801 1 180.0000771 15.1670000 2
18798 18797 18799 18800 1 180.0000771 15.1670000 2
18798 18797 18799 18801 1 180.0000771 15.1670000 2
18797 18799 18801 18802 1 180.0000771 15.1670000 2
18797 18799 18801 18803 1 180.0000771 15.1670000 2
18800 18799 18801 18802 1 180.0000771 15.1670000 2
18800 18799 18801 18803 1 180.0000771 15.1670000 2
18797 18801 18799 18800 4 180.0000771 4.6024000 2
18799 18801 18803 18804 1 180.0000771 15.1670000 2
18799 18801 18803 18805 1 180.0000771 15.1670000 2
18802 18801 18803 18804 1 180.0000771 15.1670000 2
18802 18801 18803 18805 1 180.0000771 15.1670000 2
18799 18803 18801 18802 4 180.0000771 4.6024000 2
18796 18803 18805 18806 4 180.0000771 4.6024000 2
18801 18803 18805 18806 1 180.0000771 15.1670000 2
18804 18803 18805 18806 1 180.0000771 15.1670000 2
18796 18805 18803 18801 1 180.0000771 15.1670000 2
18796 18805 18803 18804 1 180.0000771 15.1670000 2
18801 18805 18803 18804 4 180.0000771 4.6024000 2
18807 18808 18809 18810 1 180.0000771 15.1670000 2
18807 18808 18809 18811 1 180.0000771 15.1670000 2
18810 18808 18809 18811 4 180.0000771 4.6024000 2
18807 18808 18817 18809 4 180.0000771 4.6024000 2
18807 18808 18817 18815 1 180.0000771 15.1670000 2
18807 18808 18817 18818 1 180.0000771 15.1670000 2
18809 18808 18817 18815 1 180.0000771 15.1670000 2
18809 18808 18817 18818 1 180.0000771 15.1670000 2
18810 18809 18808 18817 1 180.0000771 15.1670000 2
18811 18809 18808 18817 1 180.0000771 15.1670000 2
18808 18809 18811 18812 1 180.0000771 15.1670000 2
18808 18809 18811 18813 1 180.0000771 15.1670000 2
18810 18809 18811 18812 1 180.0000771 15.1670000 2
18810 18809 18811 18813 1 180.0000771 15.1670000 2
18809 18811 18813 18814 1 180.0000771 15.1670000 2
18809 18811 18813 18815 1 180.0000771 15.1670000 2
18812 18811 18813 18814 1 180.0000771 15.1670000 2
18812 18811 18813 18815 1 180.0000771 15.1670000 2
18809 18813 18811 18812 4 180.0000771 4.6024000 2
18811 18813 18815 18816 1 180.0000771 15.1670000 2
18811 18813 18815 18817 1 180.0000771 15.1670000 2
18814 18813 18815 18816 1 180.0000771 15.1670000 2
18814 18813 18815 18817 1 180.0000771 15.1670000 2
18811 18815 18813 18814 4 180.0000771 4.6024000 2
18808 18815 18817 18818 4 180.0000771 4.6024000 2
18813 18815 18817 18818 1 180.0000771 15.1670000 2
18816 18815 18817 18818 1 180.0000771 15.1670000 2
18808 18817 18815 18813 1 180.0000771 15.1670000 2
18808 18817 18815 18816 1 180.0000771 15.1670000 2
18813 18817 18815 18816 4 180.0000771 4.6024000 2
18819 18820 18821 18822 1 180.0000771 15.1670000 2
18819 18820 18821 18823 1 180.0000771 15.1670000 2
18822 18820 18821 18823 4 180.0000771 4.6024000 2
18819 18820 18829 18821 4 180.0000771 4.6024000 2
18819 18820 18829 18827 1 180.0000771 15.1670000 2
18819 18820 18829 18830 1 180.0000771 15.1670000 2
18821 18820 18829 18827 1 180.0000771 15.1670000 2
18821 18820 18829 18830 1 180.0000771 15.1670000 2
18822 18821 18820 18829 1 180.0000771 15.1670000 2
18823 18821 18820 18829 1 180.0000771 15.1670000 2
18820 18821 18823 18824 1 180.0000771 15.1670000 2
18820 18821 18823 18825 1 180.0000771 15.1670000 2
18822 18821 18823 18824 1 180.0000771 15.1670000 2
18822 18821 18823 18825 1 180.0000771 15.1670000 2
18821 18823 18825 18826 1 180.0000771 15.1670000 2
18821 18823 18825 18827 1 180.0000771 15.1670000 2
18824 18823 18825 18826 1 180.0000771 15.1670000 2
18824 18823 18825 18827 1 180.0000771 15.1670000 2
18821 18825 18823 18824 4 180.0000771 4.6024000 2
18823 18825 18827 18828 1 180.0000771 15.1670000 2
18823 18825 18827 18829 1 180.0000771 15.1670000 2
18826 18825 18827 18828 1 180.0000771 15.1670000 2
18826 18825 18827 18829 1 180.0000771 15.1670000 2
18823 18827 18825 18826 4 180.0000771 4.6024000 2
18820 18827 18829 18830 4 180.0000771 4.6024000 2
18825 18827 18829 18830 1 180.0000771 15.1670000 2
18828 18827 18829 18830 1 180.0000771 15.1670000 2
18820 18829 18827 18825 1 180.0000771 15.1670000 2
18820 18829 18827 18828 1 180.0000771 15.1670000 2
18825 18829 18827 18828 4 180.0000771 4.6024000 2
18831 18832 18833 18834 1 180.0000771 15.1670000 2
18831 18832 18833 18835 1 180.0000771 15.1670000 2
18834 18832 18833 18835 4 180.0000771 4.6024000 2
18831 18832 18841 18833 4 180.0000771 4.6024000 2
18831 18832 18841 18839 1 180.0000771 15.1670000 2
18831 18832 18841 18842 1 180.0000771 15.1670000 2
18833 18832 18841 18839 1 180.0000771 15.1670000 2
18833 18832 18841 18842 1 180.0000771 15.1670000 2
18834 18833 18832 18841 1 180.0000771 15.1670000 2
18835 18833 18832 18841 1 180.0000771 15.1670000 2
18832 18833 18835 18836 1 180.0000771 15.1670000 2
18832 18833 18835 18837 1 180.0000771 15.1670000 2
18834 18833 18835 18836 1 180.0000771 15.1670000 2
18834 18833 18835 18837 1 180.0000771 15.1670000 2
18833 18835 18837 18838 1 180.0000771 15.1670000 2
18833 18835 18837 18839 1 180.0000771 15.1670000 2
18836 18835 18837 18838 1 180.0000771 15.1670000 2
18836 18835 18837 18839 1 180.0000771 15.1670000 2
18833 18837 18835 18836 4 180.0000771 4.6024000 2
18835 18837 18839 18840 1 180.0000771 15.1670000 2
18835 18837 18839 18841 1 180.0000771 15.1670000 2
18838 18837 18839 18840 1 180.0000771 15.1670000 2
18838 18837 18839 18841 1 180.0000771 15.1670000 2
18835 18839 18837 18838 4 180.0000771 4.6024000 2
18832 18839 18841 18842 4 180.0000771 4.6024000 2
18837 18839 18841 18842 1 180.0000771 15.1670000 2
18840 18839 18841 18842 1 180.0000771 15.1670000 2
18832 18841 18839 18837 1 180.0000771 15.1670000 2
18832 18841 18839 18840 1 180.0000771 15.1670000 2
18837 18841 18839 18840 4 180.0000771 4.6024000 2
18843 18844 18845 18846 1 180.0000771 15.1670000 2
18843 18844 18845 18847 1 180.0000771 15.1670000 2
18846 18844 18845 18847 4 180.0000771 4.6024000 2
18843 18844 18853 18845 4 180.0000771 4.6024000 2
18843 18844 18853 18851 1 180.0000771 15.1670000 2
18843 18844 18853 18854 1 180.0000771 15.1670000 2
18845 18844 18853 18851 1 180.0000771 15.1670000 2
18845 18844 18853 18854 1 180.0000771 15.1670000 2
18846 18845 18844 18853 1 180.0000771 15.1670000 2
18847 18845 18844 18853 1 180.0000771 15.1670000 2
18844 18845 18847 18848 1 180.0000771 15.1670000 2
18844 18845 18847 18849 1 180.0000771 15.1670000 2
18846 18845 18847 18848 1 180.0000771 15.1670000 2
18846 18845 18847 18849 1 180.0000771 15.1670000 2
18845 18847 18849 18850 1 180.0000771 15.1670000 2
18845 18847 18849 18851 1 180.0000771 15.1670000 2
18848 18847 18849 18850 1 180.0000771 15.1670000 2
18848 18847 18849 18851 1 180.0000771 15.1670000 2
18845 18849 18847 18848 4 180.0000771 4.6024000 2
18847 18849 18851 18852 1 180.0000771 15.1670000 2
18847 18849 18851 18853 1 180.0000771 15.1670000 2
18850 18849 18851 18852 1 180.0000771 15.1670000 2
18850 18849 18851 18853 1 180.0000771 15.1670000 2
18847 18851 18849 18850 4 180.0000771 4.6024000 2
18844 18851 18853 18854 4 180.0000771 4.6024000 2
18849 18851 18853 18854 1 180.0000771 15.1670000 2
18852 18851 18853 18854 1 180.0000771 15.1670000 2
18844 18853 18851 18849 1 180.0000771 15.1670000 2
18844 18853 18851 18852 1 180.0000771 15.1670000 2
18849 18853 18851 18852 4 180.0000771 4.6024000 2
18855 18856 18857 18858 1 180.0000771 15.1670000 2
18855 18856 18857 18859 1 180.0000771 15.1670000 2
18858 18856 18857 18859 4 180.0000771 4.6024000 2
18855 18856 18865 18857 4 180.0000771 4.6024000 2
18855 18856 18865 18863 1 180.0000771 15.1670000 2
18855 18856 18865 18866 1 180.0000771 15.1670000 2
18857 18856 18865 18863 1 180.0000771 15.1670000 2
18857 18856 18865 18866 1 180.0000771 15.1670000 2
18858 18857 18856 18865 1 180.0000771 15.1670000 2
18859 18857 18856 18865 1 180.0000771 15.1670000 2
18856 18857 18859 18860 1 180.0000771 15.1670000 2
18856 18857 18859 18861 1 180.0000771 15.1670000 2
18858 18857 18859 18860 1 180.0000771 15.1670000 2
18858 18857 18859 18861 1 180.0000771 15.1670000 2
18857 18859 18861 18862 1 180.0000771 15.1670000 2
18857 18859 18861 18863 1 180.0000771 15.1670000 2
18860 18859 18861 18862 1 180.0000771 15.1670000 2
18860 18859 18861 18863 1 180.0000771 15.1670000 2
18857 18861 18859 18860 4 180.0000771 4.6024000 2
18859 18861 18863 18864 1 180.0000771 15.1670000 2
18859 18861 18863 18865 1 180.0000771 15.1670000 2
18862 18861 18863 18864 1 180.0000771 15.1670000 2
18862 18861 18863 18865 1 180.0000771 15.1670000 2
18859 18863 18861 18862 4 180.0000771 4.6024000 2
18856 18863 18865 18866 4 180.0000771 4.6024000 2
18861 18863 18865 18866 1 180.0000771 15.1670000 2
18864 18863 18865 18866 1 180.0000771 15.1670000 2
18856 18865 18863 18861 1 180.0000771 15.1670000 2
18856 18865 18863 18864 1 180.0000771 15.1670000 2
18861 18865 18863 18864 4 180.0000771 4.6024000 2
18867 18868 18869 18870 1 180.0000771 15.1670000 2
18867 18868 18869 18871 1 180.0000771 15.1670000 2
18870 18868 18869 18871 4 180.0000771 4.6024000 2
18867 18868 18877 18869 4 180.0000771 4.6024000 2
18867 18868 18877 18875 1 180.0000771 15.1670000 2
18867 18868 18877 18878 1 180.0000771 15.1670000 2
18869 18868 18877 18875 1 180.0000771 15.1670000 2
18869 18868 18877 18878 1 180.0000771 15.1670000 2
18870 18869 18868 18877 1 180.0000771 15.1670000 2
18871 18869 18868 18877 1 180.0000771 15.1670000 2
18868 18869 18871 18872 1 180.0000771 15.1670000 2
18868 18869 18871 18873 1 180.0000771 15.1670000 2
18870 18869 18871 18872 1 180.0000771 15.1670000 2
18870 18869 18871 18873 1 180.0000771 15.1670000 2
18869 18871 18873 18874 1 180.0000771 15.1670000 2
18869 18871 18873 18875 1 180.0000771 15.1670000 2
18872 18871 18873 18874 1 180.0000771 15.1670000 2
18872 18871 18873 18875 1 180.0000771 15.1670000 2
18869 18873 18871 18872 4 180.0000771 4.6024000 2
18871 18873 18875 18876 1 180.0000771 15.1670000 2
18871 18873 18875 18877 1 180.0000771 15.1670000 2
18874 18873 18875 18876 1 180.0000771 15.1670000 2
18874 18873 18875 18877 1 180.0000771 15.1670000 2
18871 18875 18873 18874 4 180.0000771 4.6024000 2
18868 18875 18877 18878 4 180.0000771 4.6024000 2
18873 18875 18877 18878 1 180.0000771 15.1670000 2
18876 18875 18877 18878 1 180.0000771 15.1670000 2
18868 18877 18875 18873 1 180.0000771 15.1670000 2
18868 18877 18875 18876 1 180.0000771 15.1670000 2
18873 18877 18875 18876 4 180.0000771 4.6024000 2
18879 18880 18881 18882 1 180.0000771 15.1670000 2
18879 18880 18881 18883 1 180.0000771 15.1670000 2
18882 18880 18881 18883 4 180.0000771 4.6024000 2
18879 18880 18889 18881 4 180.0000771 4.6024000 2
18879 18880 18889 18887 1 180.0000771 15.1670000 2
18879 18880 18889 18890 1 180.0000771 15.1670000 2
18881 18880 18889 18887 1 180.0000771 15.1670000 2
18881 18880 18889 18890 1 180.0000771 15.1670000 2
18882 18881 18880 18889 1 180.0000771 15.1670000 2
18883 18881 18880 18889 1 180.0000771 15.1670000 2
18880 18881 18883 18884 1 180.0000771 15.1670000 2
18880 18881 18883 18885 1 180.0000771 15.1670000 2
18882 18881 18883 18884 1 180.0000771 15.1670000 2
18882 18881 18883 18885 1 180.0000771 15.1670000 2
18881 18883 18885 18886 1 180.0000771 15.1670000 2
18881 18883 18885 18887 1 180.0000771 15.1670000 2
18884 18883 18885 18886 1 180.0000771 15.1670000 2
18884 18883 18885 18887 1 180.0000771 15.1670000 2
18881 18885 18883 18884 4 180.0000771 4.6024000 2
18883 18885 18887 18888 1 180.0000771 15.1670000 2
18883 18885 18887 18889 1 180.0000771 15.1670000 2
18886 18885 18887 18888 1 180.0000771 15.1670000 2
18886 18885 18887 18889 1 180.0000771 15.1670000 2
18883 18887 18885 18886 4 180.0000771 4.6024000 2
18880 18887 18889 18890 4 180.0000771 4.6024000 2
18885 18887 18889 18890 1 180.0000771 15.1670000 2
18888 18887 18889 18890 1 180.0000771 15.1670000 2
18880 18889 18887 18885 1 180.0000771 15.1670000 2
18880 18889 18887 18888 1 180.0000771 15.1670000 2
18885 18889 18887 18888 4 180.0000771 4.6024000 2
18891 18892 18893 18894 1 180.0000771 15.1670000 2
18891 18892 18893 18895 1 180.0000771 15.1670000 2
18894 18892 18893 18895 4 180.0000771 4.6024000 2
18891 18892 18901 18893 4 180.0000771 4.6024000 2
18891 18892 18901 18899 1 180.0000771 15.1670000 2
18891 18892 18901 18902 1 180.0000771 15.1670000 2
18893 18892 18901 18899 1 180.0000771 15.1670000 2
18893 18892 18901 18902 1 180.0000771 15.1670000 2
18894 18893 18892 18901 1 180.0000771 15.1670000 2
18895 18893 18892 18901 1 180.0000771 15.1670000 2
18892 18893 18895 18896 1 180.0000771 15.1670000 2
18892 18893 18895 18897 1 180.0000771 15.1670000 2
18894 18893 18895 18896 1 180.0000771 15.1670000 2
18894 18893 18895 18897 1 180.0000771 15.1670000 2
18893 18895 18897 18898 1 180.0000771 15.1670000 2
18893 18895 18897 18899 1 180.0000771 15.1670000 2
18896 18895 18897 18898 1 180.0000771 15.1670000 2
18896 18895 18897 18899 1 180.0000771 15.1670000 2
18893 18897 18895 18896 4 180.0000771 4.6024000 2
18895 18897 18899 18900 1 180.0000771 15.1670000 2
18895 18897 18899 18901 1 180.0000771 15.1670000 2
18898 18897 18899 18900 1 180.0000771 15.1670000 2
18898 18897 18899 18901 1 180.0000771 15.1670000 2
18895 18899 18897 18898 4 180.0000771 4.6024000 2
18892 18899 18901 18902 4 180.0000771 4.6024000 2
18897 18899 18901 18902 1 180.0000771 15.1670000 2
18900 18899 18901 18902 1 180.0000771 15.1670000 2
18892 18901 18899 18897 1 180.0000771 15.1670000 2
18892 18901 18899 18900 1 180.0000771 15.1670000 2
18897 18901 18899 18900 4 180.0000771 4.6024000 2
18903 18904 18905 18906 1 180.0000771 15.1670000 2
18903 18904 18905 18907 1 180.0000771 15.1670000 2
18906 18904 18905 18907 4 180.0000771 4.6024000 2
18903 18904 18913 18905 4 180.0000771 4.6024000 2
18903 18904 18913 18911 1 180.0000771 15.1670000 2
18903 18904 18913 18914 1 180.0000771 15.1670000 2
18905 18904 18913 18911 1 180.0000771 15.1670000 2
18905 18904 18913 18914 1 180.0000771 15.1670000 2
18906 18905 18904 18913 1 180.0000771 15.1670000 2
18907 18905 18904 18913 1 180.0000771 15.1670000 2
18904 18905 18907 18908 1 180.0000771 15.1670000 2
18904 18905 18907 18909 1 180.0000771 15.1670000 2
18906 18905 18907 18908 1 180.0000771 15.1670000 2
18906 18905 18907 18909 1 180.0000771 15.1670000 2
18905 18907 18909 18910 1 180.0000771 15.1670000 2
18905 18907 18909 18911 1 180.0000771 15.1670000 2
18908 18907 18909 18910 1 180.0000771 15.1670000 2
18908 18907 18909 18911 1 180.0000771 15.1670000 2
18905 18909 18907 18908 4 180.0000771 4.6024000 2
18907 18909 18911 18912 1 180.0000771 15.1670000 2
18907 18909 18911 18913 1 180.0000771 15.1670000 2
18910 18909 18911 18912 1 180.0000771 15.1670000 2
18910 18909 18911 18913 1 180.0000771 15.1670000 2
18907 18911 18909 18910 4 180.0000771 4.6024000 2
18904 18911 18913 18914 4 180.0000771 4.6024000 2
18909 18911 18913 18914 1 180.0000771 15.1670000 2
18912 18911 18913 18914 1 180.0000771 15.1670000 2
18904 18913 18911 18909 1 180.0000771 15.1670000 2
18904 18913 18911 18912 1 180.0000771 15.1670000 2
18909 18913 18911 18912 4 180.0000771 4.6024000 2
18915 18916 18917 18918 1 180.0000771 15.1670000 2
18915 18916 18917 18919 1 180.0000771 15.1670000 2
18918 18916 18917 18919 4 180.0000771 4.6024000 2
18915 18916 18925 18917 4 180.0000771 4.6024000 2
18915 18916 18925 18923 1 180.0000771 15.1670000 2
18915 18916 18925 18926 1 180.0000771 15.1670000 2
18917 18916 18925 18923 1 180.0000771 15.1670000 2
18917 18916 18925 18926 1 180.0000771 15.1670000 2
18918 18917 18916 18925 1 180.0000771 15.1670000 2
18919 18917 18916 18925 1 180.0000771 15.1670000 2
18916 18917 18919 18920 1 180.0000771 15.1670000 2
18916 18917 18919 18921 1 180.0000771 15.1670000 2
18918 18917 18919 18920 1 180.0000771 15.1670000 2
18918 18917 18919 18921 1 180.0000771 15.1670000 2
18917 18919 18921 18922 1 180.0000771 15.1670000 2
18917 18919 18921 18923 1 180.0000771 15.1670000 2
18920 18919 18921 18922 1 180.0000771 15.1670000 2
18920 18919 18921 18923 1 180.0000771 15.1670000 2
18917 18921 18919 18920 4 180.0000771 4.6024000 2
18919 18921 18923 18924 1 180.0000771 15.1670000 2
18919 18921 18923 18925 1 180.0000771 15.1670000 2
18922 18921 18923 18924 1 180.0000771 15.1670000 2
18922 18921 18923 18925 1 180.0000771 15.1670000 2
18919 18923 18921 18922 4 180.0000771 4.6024000 2
18916 18923 18925 18926 4 180.0000771 4.6024000 2
18921 18923 18925 18926 1 180.0000771 15.1670000 2
18924 18923 18925 18926 1 180.0000771 15.1670000 2
18916 18925 18923 18921 1 180.0000771 15.1670000 2
18916 18925 18923 18924 1 180.0000771 15.1670000 2
18921 18925 18923 18924 4 180.0000771 4.6024000 2
18927 18928 18929 18930 1 180.0000771 15.1670000 2
18927 18928 18929 18931 1 180.0000771 15.1670000 2
18930 18928 18929 18931 4 180.0000771 4.6024000 2
18927 18928 18937 18929 4 180.0000771 4.6024000 2
18927 18928 18937 18935 1 180.0000771 15.1670000 2
18927 18928 18937 18938 1 180.0000771 15.1670000 2
18929 18928 18937 18935 1 180.0000771 15.1670000 2
18929 18928 18937 18938 1 180.0000771 15.1670000 2
18930 18929 18928 18937 1 180.0000771 15.1670000 2
18931 18929 18928 18937 1 180.0000771 15.1670000 2
18928 18929 18931 18932 1 180.0000771 15.1670000 2
18928 18929 18931 18933 1 180.0000771 15.1670000 2
18930 18929 18931 18932 1 180.0000771 15.1670000 2
18930 18929 18931 18933 1 180.0000771 15.1670000 2
18929 18931 18933 18934 1 180.0000771 15.1670000 2
18929 18931 18933 18935 1 180.0000771 15.1670000 2
18932 18931 18933 18934 1 180.0000771 15.1670000 2
18932 18931 18933 18935 1 180.0000771 15.1670000 2
18929 18933 18931 18932 4 180.0000771 4.6024000 2
18931 18933 18935 18936 1 180.0000771 15.1670000 2
18931 18933 18935 18937 1 180.0000771 15.1670000 2
18934 18933 18935 18936 1 180.0000771 15.1670000 2
18934 18933 18935 18937 1 180.0000771 15.1670000 2
18931 18935 18933 18934 4 180.0000771 4.6024000 2
18928 18935 18937 18938 4 180.0000771 4.6024000 2
18933 18935 18937 18938 1 180.0000771 15.1670000 2
18936 18935 18937 18938 1 180.0000771 15.1670000 2
18928 18937 18935 18933 1 180.0000771 15.1670000 2
18928 18937 18935 18936 1 180.0000771 15.1670000 2
18933 18937 18935 18936 4 180.0000771 4.6024000 2
18939 18940 18941 18942 1 180.0000771 15.1670000 2
18939 18940 18941 18943 1 180.0000771 15.1670000 2
18942 18940 18941 18943 4 180.0000771 4.6024000 2
18939 18940 18949 18941 4 180.0000771 4.6024000 2
18939 18940 18949 18947 1 180.0000771 15.1670000 2
18939 18940 18949 18950 1 180.0000771 15.1670000 2
18941 18940 18949 18947 1 180.0000771 15.1670000 2
18941 18940 18949 18950 1 180.0000771 15.1670000 2
18942 18941 18940 18949 1 180.0000771 15.1670000 2
18943 18941 18940 18949 1 180.0000771 15.1670000 2
18940 18941 18943 18944 1 180.0000771 15.1670000 2
18940 18941 18943 18945 1 180.0000771 15.1670000 2
18942 18941 18943 18944 1 180.0000771 15.1670000 2
18942 18941 18943 18945 1 180.0000771 15.1670000 2
18941 18943 18945 18946 1 180.0000771 15.1670000 2
18941 18943 18945 18947 1 180.0000771 15.1670000 2
18944 18943 18945 18946 1 180.0000771 15.1670000 2
18944 18943 18945 18947 1 180.0000771 15.1670000 2
18941 18945 18943 18944 4 180.0000771 4.6024000 2
18943 18945 18947 18948 1 180.0000771 15.1670000 2
18943 18945 18947 18949 1 180.0000771 15.1670000 2
18946 18945 18947 18948 1 180.0000771 15.1670000 2
18946 18945 18947 18949 1 180.0000771 15.1670000 2
18943 18947 18945 18946 4 180.0000771 4.6024000 2
18940 18947 18949 18950 4 180.0000771 4.6024000 2
18945 18947 18949 18950 1 180.0000771 15.1670000 2
18948 18947 18949 18950 1 180.0000771 15.1670000 2
18940 18949 18947 18945 1 180.0000771 15.1670000 2
18940 18949 18947 18948 1 180.0000771 15.1670000 2
18945 18949 18947 18948 4 180.0000771 4.6024000 2
18951 18952 18953 18954 1 180.0000771 15.1670000 2
18951 18952 18953 18955 1 180.0000771 15.1670000 2
18954 18952 18953 18955 4 180.0000771 4.6024000 2
18951 18952 18961 18953 4 180.0000771 4.6024000 2
18951 18952 18961 18959 1 180.0000771 15.1670000 2
18951 18952 18961 18962 1 180.0000771 15.1670000 2
18953 18952 18961 18959 1 180.0000771 15.1670000 2
18953 18952 18961 18962 1 180.0000771 15.1670000 2
18954 18953 18952 18961 1 180.0000771 15.1670000 2
18955 18953 18952 18961 1 180.0000771 15.1670000 2
18952 18953 18955 18956 1 180.0000771 15.1670000 2
18952 18953 18955 18957 1 180.0000771 15.1670000 2
18954 18953 18955 18956 1 180.0000771 15.1670000 2
18954 18953 18955 18957 1 180.0000771 15.1670000 2
18953 18955 18957 18958 1 180.0000771 15.1670000 2
18953 18955 18957 18959 1 180.0000771 15.1670000 2
18956 18955 18957 18958 1 180.0000771 15.1670000 2
18956 18955 18957 18959 1 180.0000771 15.1670000 2
18953 18957 18955 18956 4 180.0000771 4.6024000 2
18955 18957 18959 18960 1 180.0000771 15.1670000 2
18955 18957 18959 18961 1 180.0000771 15.1670000 2
18958 18957 18959 18960 1 180.0000771 15.1670000 2
18958 18957 18959 18961 1 180.0000771 15.1670000 2
18955 18959 18957 18958 4 180.0000771 4.6024000 2
18952 18959 18961 18962 4 180.0000771 4.6024000 2
18957 18959 18961 18962 1 180.0000771 15.1670000 2
18960 18959 18961 18962 1 180.0000771 15.1670000 2
18952 18961 18959 18957 1 180.0000771 15.1670000 2
18952 18961 18959 18960 1 180.0000771 15.1670000 2
18957 18961 18959 18960 4 180.0000771 4.6024000 2
18963 18964 18965 18966 1 180.0000771 15.1670000 2
18963 18964 18965 18967 1 180.0000771 15.1670000 2
18966 18964 18965 18967 4 180.0000771 4.6024000 2
18963 18964 18973 18965 4 180.0000771 4.6024000 2
18963 18964 18973 18971 1 180.0000771 15.1670000 2
18963 18964 18973 18974 1 180.0000771 15.1670000 2
18965 18964 18973 18971 1 180.0000771 15.1670000 2
18965 18964 18973 18974 1 180.0000771 15.1670000 2
18966 18965 18964 18973 1 180.0000771 15.1670000 2
18967 18965 18964 18973 1 180.0000771 15.1670000 2
18964 18965 18967 18968 1 180.0000771 15.1670000 2
18964 18965 18967 18969 1 180.0000771 15.1670000 2
18966 18965 18967 18968 1 180.0000771 15.1670000 2
18966 18965 18967 18969 1 180.0000771 15.1670000 2
18965 18967 18969 18970 1 180.0000771 15.1670000 2
18965 18967 18969 18971 1 180.0000771 15.1670000 2
18968 18967 18969 18970 1 180.0000771 15.1670000 2
18968 18967 18969 18971 1 180.0000771 15.1670000 2
18965 18969 18967 18968 4 180.0000771 4.6024000 2
18967 18969 18971 18972 1 180.0000771 15.1670000 2
18967 18969 18971 18973 1 180.0000771 15.1670000 2
18970 18969 18971 18972 1 180.0000771 15.1670000 2
18970 18969 18971 18973 1 180.0000771 15.1670000 2
18967 18971 18969 18970 4 180.0000771 4.6024000 2
18964 18971 18973 18974 4 180.0000771 4.6024000 2
18969 18971 18973 18974 1 180.0000771 15.1670000 2
18972 18971 18973 18974 1 180.0000771 15.1670000 2
18964 18973 18971 18969 1 180.0000771 15.1670000 2
18964 18973 18971 18972 1 180.0000771 15.1670000 2
18969 18973 18971 18972 4 180.0000771 4.6024000 2
18975 18976 18977 18978 1 180.0000771 15.1670000 2
18975 18976 18977 18979 1 180.0000771 15.1670000 2
18978 18976 18977 18979 4 180.0000771 4.6024000 2
18975 18976 18985 18977 4 180.0000771 4.6024000 2
18975 18976 18985 18983 1 180.0000771 15.1670000 2
18975 18976 18985 18986 1 180.0000771 15.1670000 2
18977 18976 18985 18983 1 180.0000771 15.1670000 2
18977 18976 18985 18986 1 180.0000771 15.1670000 2
18978 18977 18976 18985 1 180.0000771 15.1670000 2
18979 18977 18976 18985 1 180.0000771 15.1670000 2
18976 18977 18979 18980 1 180.0000771 15.1670000 2
18976 18977 18979 18981 1 180.0000771 15.1670000 2
18978 18977 18979 18980 1 180.0000771 15.1670000 2
18978 18977 18979 18981 1 180.0000771 15.1670000 2
18977 18979 18981 18982 1 180.0000771 15.1670000 2
18977 18979 18981 18983 1 180.0000771 15.1670000 2
18980 18979 18981 18982 1 180.0000771 15.1670000 2
18980 18979 18981 18983 1 180.0000771 15.1670000 2
18977 18981 18979 18980 4 180.0000771 4.6024000 2
18979 18981 18983 18984 1 180.0000771 15.1670000 2
18979 18981 18983 18985 1 180.0000771 15.1670000 2
18982 18981 18983 18984 1 180.0000771 15.1670000 2
18982 18981 18983 18985 1 180.0000771 15.1670000 2
18979 18983 18981 18982 4 180.0000771 4.6024000 2
18976 18983 18985 18986 4 180.0000771 4.6024000 2
18981 18983 18985 18986 1 180.0000771 15.1670000 2
18984 18983 18985 18986 1 180.0000771 15.1670000 2
18976 18985 18983 18981 1 180.0000771 15.1670000 2
18976 18985 18983 18984 1 180.0000771 15.1670000 2
18981 18985 18983 18984 4 180.0000771 4.6024000 2
18987 18988 18989 18990 1 180.0000771 15.1670000 2
18987 18988 18989 18991 1 180.0000771 15.1670000 2
18990 18988 18989 18991 4 180.0000771 4.6024000 2
18987 18988 18997 18989 4 180.0000771 4.6024000 2
18987 18988 18997 18995 1 180.0000771 15.1670000 2
18987 18988 18997 18998 1 180.0000771 15.1670000 2
18989 18988 18997 18995 1 180.0000771 15.1670000 2
18989 18988 18997 18998 1 180.0000771 15.1670000 2
18990 18989 18988 18997 1 180.0000771 15.1670000 2
18991 18989 18988 18997 1 180.0000771 15.1670000 2
18988 18989 18991 18992 1 180.0000771 15.1670000 2
18988 18989 18991 18993 1 180.0000771 15.1670000 2
18990 18989 18991 18992 1 180.0000771 15.1670000 2
18990 18989 18991 18993 1 180.0000771 15.1670000 2
18989 18991 18993 18994 1 180.0000771 15.1670000 2
18989 18991 18993 18995 1 180.0000771 15.1670000 2
18992 18991 18993 18994 1 180.0000771 15.1670000 2
18992 18991 18993 18995 1 180.0000771 15.1670000 2
18989 18993 18991 18992 4 180.0000771 4.6024000 2
18991 18993 18995 18996 1 180.0000771 15.1670000 2
18991 18993 18995 18997 1 180.0000771 15.1670000 2
18994 18993 18995 18996 1 180.0000771 15.1670000 2
18994 18993 18995 18997 1 180.0000771 15.1670000 2
18991 18995 18993 18994 4 180.0000771 4.6024000 2
18988 18995 18997 18998 4 180.0000771 4.6024000 2
18993 18995 18997 18998 1 180.0000771 15.1670000 2
18996 18995 18997 18998 1 180.0000771 15.1670000 2
18988 18997 18995 18993 1 180.0000771 15.1670000 2
18988 18997 18995 18996 1 180.0000771 15.1670000 2
18993 18997 18995 18996 4 180.0000771 4.6024000 2
18999 19000 19001 19002 1 180.0000771 15.1670000 2
18999 19000 19001 19003 1 180.0000771 15.1670000 2
19002 19000 19001 19003 4 180.0000771 4.6024000 2
18999 19000 19009 19001 4 180.0000771 4.6024000 2
18999 19000 19009 19007 1 180.0000771 15.1670000 2
18999 19000 19009 19010 1 180.0000771 15.1670000 2
19001 19000 19009 19007 1 180.0000771 15.1670000 2
19001 19000 19009 19010 1 180.0000771 15.1670000 2
19002 19001 19000 19009 1 180.0000771 15.1670000 2
19003 19001 19000 19009 1 180.0000771 15.1670000 2
19000 19001 19003 19004 1 180.0000771 15.1670000 2
19000 19001 19003 19005 1 180.0000771 15.1670000 2
19002 19001 19003 19004 1 180.0000771 15.1670000 2
19002 19001 19003 19005 1 180.0000771 15.1670000 2
19001 19003 19005 19006 1 180.0000771 15.1670000 2
19001 19003 19005 19007 1 180.0000771 15.1670000 2
19004 19003 19005 19006 1 180.0000771 15.1670000 2
19004 19003 19005 19007 1 180.0000771 15.1670000 2
19001 19005 19003 19004 4 180.0000771 4.6024000 2
19003 19005 19007 19008 1 180.0000771 15.1670000 2
19003 19005 19007 19009 1 180.0000771 15.1670000 2
19006 19005 19007 19008 1 180.0000771 15.1670000 2
19006 19005 19007 19009 1 180.0000771 15.1670000 2
19003 19007 19005 19006 4 180.0000771 4.6024000 2
19000 19007 19009 19010 4 180.0000771 4.6024000 2
19005 19007 19009 19010 1 180.0000771 15.1670000 2
19008 19007 19009 19010 1 180.0000771 15.1670000 2
19000 19009 19007 19005 1 180.0000771 15.1670000 2
19000 19009 19007 19008 1 180.0000771 15.1670000 2
19005 19009 19007 19008 4 180.0000771 4.6024000 2
19011 19012 19013 19014 1 180.0000771 15.1670000 2
19011 19012 19013 19015 1 180.0000771 15.1670000 2
19014 19012 19013 19015 4 180.0000771 4.6024000 2
19011 19012 19021 19013 4 180.0000771 4.6024000 2
19011 19012 19021 19019 1 180.0000771 15.1670000 2
19011 19012 19021 19022 1 180.0000771 15.1670000 2
19013 19012 19021 19019 1 180.0000771 15.1670000 2
19013 19012 19021 19022 1 180.0000771 15.1670000 2
19014 19013 19012 19021 1 180.0000771 15.1670000 2
19015 19013 19012 19021 1 180.0000771 15.1670000 2
19012 19013 19015 19016 1 180.0000771 15.1670000 2
19012 19013 19015 19017 1 180.0000771 15.1670000 2
19014 19013 19015 19016 1 180.0000771 15.1670000 2
19014 19013 19015 19017 1 180.0000771 15.1670000 2
19013 19015 19017 19018 1 180.0000771 15.1670000 2
19013 19015 19017 19019 1 180.0000771 15.1670000 2
19016 19015 19017 19018 1 180.0000771 15.1670000 2
19016 19015 19017 19019 1 180.0000771 15.1670000 2
19013 19017 19015 19016 4 180.0000771 4.6024000 2
19015 19017 19019 19020 1 180.0000771 15.1670000 2
19015 19017 19019 19021 1 180.0000771 15.1670000 2
19018 19017 19019 19020 1 180.0000771 15.1670000 2
19018 19017 19019 19021 1 180.0000771 15.1670000 2
19015 19019 19017 19018 4 180.0000771 4.6024000 2
19012 19019 19021 19022 4 180.0000771 4.6024000 2
19017 19019 19021 19022 1 180.0000771 15.1670000 2
19020 19019 19021 19022 1 180.0000771 15.1670000 2
19012 19021 19019 19017 1 180.0000771 15.1670000 2
19012 19021 19019 19020 1 180.0000771 15.1670000 2
19017 19021 19019 19020 4 180.0000771 4.6024000 2
19023 19024 19025 19026 1 180.0000771 15.1670000 2
19023 19024 19025 19027 1 180.0000771 15.1670000 2
19026 19024 19025 19027 4 180.0000771 4.6024000 2
19023 19024 19033 19025 4 180.0000771 4.6024000 2
19023 19024 19033 19031 1 180.0000771 15.1670000 2
19023 19024 19033 19034 1 180.0000771 15.1670000 2
19025 19024 19033 19031 1 180.0000771 15.1670000 2
19025 19024 19033 19034 1 180.0000771 15.1670000 2
19026 19025 19024 19033 1 180.0000771 15.1670000 2
19027 19025 19024 19033 1 180.0000771 15.1670000 2
19024 19025 19027 19028 1 180.0000771 15.1670000 2
19024 19025 19027 19029 1 180.0000771 15.1670000 2
19026 19025 19027 19028 1 180.0000771 15.1670000 2
19026 19025 19027 19029 1 180.0000771 15.1670000 2
19025 19027 19029 19030 1 180.0000771 15.1670000 2
19025 19027 19029 19031 1 180.0000771 15.1670000 2
19028 19027 19029 19030 1 180.0000771 15.1670000 2
19028 19027 19029 19031 1 180.0000771 15.1670000 2
19025 19029 19027 19028 4 180.0000771 4.6024000 2
19027 19029 19031 19032 1 180.0000771 15.1670000 2
19027 19029 19031 19033 1 180.0000771 15.1670000 2
19030 19029 19031 19032 1 180.0000771 15.1670000 2
19030 19029 19031 19033 1 180.0000771 15.1670000 2
19027 19031 19029 19030 4 180.0000771 4.6024000 2
19024 19031 19033 19034 4 180.0000771 4.6024000 2
19029 19031 19033 19034 1 180.0000771 15.1670000 2
19032 19031 19033 19034 1 180.0000771 15.1670000 2
19024 19033 19031 19029 1 180.0000771 15.1670000 2
19024 19033 19031 19032 1 180.0000771 15.1670000 2
19029 19033 19031 19032 4 180.0000771 4.6024000 2
19035 19036 19037 19038 1 180.0000771 15.1670000 2
19035 19036 19037 19039 1 180.0000771 15.1670000 2
19038 19036 19037 19039 4 180.0000771 4.6024000 2
19035 19036 19045 19037 4 180.0000771 4.6024000 2
19035 19036 19045 19043 1 180.0000771 15.1670000 2
19035 19036 19045 19046 1 180.0000771 15.1670000 2
19037 19036 19045 19043 1 180.0000771 15.1670000 2
19037 19036 19045 19046 1 180.0000771 15.1670000 2
19038 19037 19036 19045 1 180.0000771 15.1670000 2
19039 19037 19036 19045 1 180.0000771 15.1670000 2
19036 19037 19039 19040 1 180.0000771 15.1670000 2
19036 19037 19039 19041 1 180.0000771 15.1670000 2
19038 19037 19039 19040 1 180.0000771 15.1670000 2
19038 19037 19039 19041 1 180.0000771 15.1670000 2
19037 19039 19041 19042 1 180.0000771 15.1670000 2
19037 19039 19041 19043 1 180.0000771 15.1670000 2
19040 19039 19041 19042 1 180.0000771 15.1670000 2
19040 19039 19041 19043 1 180.0000771 15.1670000 2
19037 19041 19039 19040 4 180.0000771 4.6024000 2
19039 19041 19043 19044 1 180.0000771 15.1670000 2
19039 19041 19043 19045 1 180.0000771 15.1670000 2
19042 19041 19043 19044 1 180.0000771 15.1670000 2
19042 19041 19043 19045 1 180.0000771 15.1670000 2
19039 19043 19041 19042 4 180.0000771 4.6024000 2
19036 19043 19045 19046 4 180.0000771 4.6024000 2
19041 19043 19045 19046 1 180.0000771 15.1670000 2
19044 19043 19045 19046 1 180.0000771 15.1670000 2
19036 19045 19043 19041 1 180.0000771 15.1670000 2
19036 19045 19043 19044 1 180.0000771 15.1670000 2
19041 19045 19043 19044 4 180.0000771 4.6024000 2
19047 19048 19049 19050 1 180.0000771 15.1670000 2
19047 19048 19049 19051 1 180.0000771 15.1670000 2
19050 19048 19049 19051 4 180.0000771 4.6024000 2
19047 19048 19057 19049 4 180.0000771 4.6024000 2
19047 19048 19057 19055 1 180.0000771 15.1670000 2
19047 19048 19057 19058 1 180.0000771 15.1670000 2
19049 19048 19057 19055 1 180.0000771 15.1670000 2
19049 19048 19057 19058 1 180.0000771 15.1670000 2
19050 19049 19048 19057 1 180.0000771 15.1670000 2
19051 19049 19048 19057 1 180.0000771 15.1670000 2
19048 19049 19051 19052 1 180.0000771 15.1670000 2
19048 19049 19051 19053 1 180.0000771 15.1670000 2
19050 19049 19051 19052 1 180.0000771 15.1670000 2
19050 19049 19051 19053 1 180.0000771 15.1670000 2
19049 19051 19053 19054 1 180.0000771 15.1670000 2
19049 19051 19053 19055 1 180.0000771 15.1670000 2
19052 19051 19053 19054 1 180.0000771 15.1670000 2
19052 19051 19053 19055 1 180.0000771 15.1670000 2
19049 19053 19051 19052 4 180.0000771 4.6024000 2
19051 19053 19055 19056 1 180.0000771 15.1670000 2
19051 19053 19055 19057 1 180.0000771 15.1670000 2
19054 19053 19055 19056 1 180.0000771 15.1670000 2
19054 19053 19055 19057 1 180.0000771 15.1670000 2
19051 19055 19053 19054 4 180.0000771 4.6024000 2
19048 19055 19057 19058 4 180.0000771 4.6024000 2
19053 19055 19057 19058 1 180.0000771 15.1670000 2
19056 19055 19057 19058 1 180.0000771 15.1670000 2
19048 19057 19055 19053 1 180.0000771 15.1670000 2
19048 19057 19055 19056 1 180.0000771 15.1670000 2
19053 19057 19055 19056 4 180.0000771 4.6024000 2
19059 19060 19061 19062 1 180.0000771 15.1670000 2
19059 19060 19061 19063 1 180.0000771 15.1670000 2
19062 19060 19061 19063 4 180.0000771 4.6024000 2
19059 19060 19069 19061 4 180.0000771 4.6024000 2
19059 19060 19069 19067 1 180.0000771 15.1670000 2
19059 19060 19069 19070 1 180.0000771 15.1670000 2
19061 19060 19069 19067 1 180.0000771 15.1670000 2
19061 19060 19069 19070 1 180.0000771 15.1670000 2
19062 19061 19060 19069 1 180.0000771 15.1670000 2
19063 19061 19060 19069 1 180.0000771 15.1670000 2
19060 19061 19063 19064 1 180.0000771 15.1670000 2
19060 19061 19063 19065 1 180.0000771 15.1670000 2
19062 19061 19063 19064 1 180.0000771 15.1670000 2
19062 19061 19063 19065 1 180.0000771 15.1670000 2
19061 19063 19065 19066 1 180.0000771 15.1670000 2
19061 19063 19065 19067 1 180.0000771 15.1670000 2
19064 19063 19065 19066 1 180.0000771 15.1670000 2
19064 19063 19065 19067 1 180.0000771 15.1670000 2
19061 19065 19063 19064 4 180.0000771 4.6024000 2
19063 19065 19067 19068 1 180.0000771 15.1670000 2
19063 19065 19067 19069 1 180.0000771 15.1670000 2
19066 19065 19067 19068 1 180.0000771 15.1670000 2
19066 19065 19067 19069 1 180.0000771 15.1670000 2
19063 19067 19065 19066 4 180.0000771 4.6024000 2
19060 19067 19069 19070 4 180.0000771 4.6024000 2
19065 19067 19069 19070 1 180.0000771 15.1670000 2
19068 19067 19069 19070 1 180.0000771 15.1670000 2
19060 19069 19067 19065 1 180.0000771 15.1670000 2
19060 19069 19067 19068 1 180.0000771 15.1670000 2
19065 19069 19067 19068 4 180.0000771 4.6024000 2
19071 19072 19073 19074 1 180.0000771 15.1670000 2
19071 19072 19073 19075 1 180.0000771 15.1670000 2
19074 19072 19073 19075 4 180.0000771 4.6024000 2
19071 19072 19081 19073 4 180.0000771 4.6024000 2
19071 19072 19081 19079 1 180.0000771 15.1670000 2
19071 19072 19081 19082 1 180.0000771 15.1670000 2
19073 19072 19081 19079 1 180.0000771 15.1670000 2
19073 19072 19081 19082 1 180.0000771 15.1670000 2
19074 19073 19072 19081 1 180.0000771 15.1670000 2
19075 19073 19072 19081 1 180.0000771 15.1670000 2
19072 19073 19075 19076 1 180.0000771 15.1670000 2
19072 19073 19075 19077 1 180.0000771 15.1670000 2
19074 19073 19075 19076 1 180.0000771 15.1670000 2
19074 19073 19075 19077 1 180.0000771 15.1670000 2
19073 19075 19077 19078 1 180.0000771 15.1670000 2
19073 19075 19077 19079 1 180.0000771 15.1670000 2
19076 19075 19077 19078 1 180.0000771 15.1670000 2
19076 19075 19077 19079 1 180.0000771 15.1670000 2
19073 19077 19075 19076 4 180.0000771 4.6024000 2
19075 19077 19079 19080 1 180.0000771 15.1670000 2
19075 19077 19079 19081 1 180.0000771 15.1670000 2
19078 19077 19079 19080 1 180.0000771 15.1670000 2
19078 19077 19079 19081 1 180.0000771 15.1670000 2
19075 19079 19077 19078 4 180.0000771 4.6024000 2
19072 19079 19081 19082 4 180.0000771 4.6024000 2
19077 19079 19081 19082 1 180.0000771 15.1670000 2
19080 19079 19081 19082 1 180.0000771 15.1670000 2
19072 19081 19079 19077 1 180.0000771 15.1670000 2
19072 19081 19079 19080 1 180.0000771 15.1670000 2
19077 19081 19079 19080 4 180.0000771 4.6024000 2
19083 19084 19085 19086 1 180.0000771 15.1670000 2
19083 19084 19085 19087 1 180.0000771 15.1670000 2
19086 19084 19085 19087 4 180.0000771 4.6024000 2
19083 19084 19093 19085 4 180.0000771 4.6024000 2
19083 19084 19093 19091 1 180.0000771 15.1670000 2
19083 19084 19093 19094 1 180.0000771 15.1670000 2
19085 19084 19093 19091 1 180.0000771 15.1670000 2
19085 19084 19093 19094 1 180.0000771 15.1670000 2
19086 19085 19084 19093 1 180.0000771 15.1670000 2
19087 19085 19084 19093 1 180.0000771 15.1670000 2
19084 19085 19087 19088 1 180.0000771 15.1670000 2
19084 19085 19087 19089 1 180.0000771 15.1670000 2
19086 19085 19087 19088 1 180.0000771 15.1670000 2
19086 19085 19087 19089 1 180.0000771 15.1670000 2
19085 19087 19089 19090 1 180.0000771 15.1670000 2
19085 19087 19089 19091 1 180.0000771 15.1670000 2
19088 19087 19089 19090 1 180.0000771 15.1670000 2
19088 19087 19089 19091 1 180.0000771 15.1670000 2
19085 19089 19087 19088 4 180.0000771 4.6024000 2
19087 19089 19091 19092 1 180.0000771 15.1670000 2
19087 19089 19091 19093 1 180.0000771 15.1670000 2
19090 19089 19091 19092 1 180.0000771 15.1670000 2
19090 19089 19091 19093 1 180.0000771 15.1670000 2
19087 19091 19089 19090 4 180.0000771 4.6024000 2
19084 19091 19093 19094 4 180.0000771 4.6024000 2
19089 19091 19093 19094 1 180.0000771 15.1670000 2
19092 19091 19093 19094 1 180.0000771 15.1670000 2
19084 19093 19091 19089 1 180.0000771 15.1670000 2
19084 19093 19091 19092 1 180.0000771 15.1670000 2
19089 19093 19091 19092 4 180.0000771 4.6024000 2
19095 19096 19097 19098 1 180.0000771 15.1670000 2
19095 19096 19097 19099 1 180.0000771 15.1670000 2
19098 19096 19097 19099 4 180.0000771 4.6024000 2
19095 19096 19105 19097 4 180.0000771 4.6024000 2
19095 19096 19105 19103 1 180.0000771 15.1670000 2
19095 19096 19105 19106 1 180.0000771 15.1670000 2
19097 19096 19105 19103 1 180.0000771 15.1670000 2
19097 19096 19105 19106 1 180.0000771 15.1670000 2
19098 19097 19096 19105 1 180.0000771 15.1670000 2
19099 19097 19096 19105 1 180.0000771 15.1670000 2
19096 19097 19099 19100 1 180.0000771 15.1670000 2
19096 19097 19099 19101 1 180.0000771 15.1670000 2
19098 19097 19099 19100 1 180.0000771 15.1670000 2
19098 19097 19099 19101 1 180.0000771 15.1670000 2
19097 19099 19101 19102 1 180.0000771 15.1670000 2
19097 19099 19101 19103 1 180.0000771 15.1670000 2
19100 19099 19101 19102 1 180.0000771 15.1670000 2
19100 19099 19101 19103 1 180.0000771 15.1670000 2
19097 19101 19099 19100 4 180.0000771 4.6024000 2
19099 19101 19103 19104 1 180.0000771 15.1670000 2
19099 19101 19103 19105 1 180.0000771 15.1670000 2
19102 19101 19103 19104 1 180.0000771 15.1670000 2
19102 19101 19103 19105 1 180.0000771 15.1670000 2
19099 19103 19101 19102 4 180.0000771 4.6024000 2
19096 19103 19105 19106 4 180.0000771 4.6024000 2
19101 19103 19105 19106 1 180.0000771 15.1670000 2
19104 19103 19105 19106 1 180.0000771 15.1670000 2
19096 19105 19103 19101 1 180.0000771 15.1670000 2
19096 19105 19103 19104 1 180.0000771 15.1670000 2
19101 19105 19103 19104 4 180.0000771 4.6024000 2
19107 19108 19109 19110 1 180.0000771 15.1670000 2
19107 19108 19109 19111 1 180.0000771 15.1670000 2
19110 19108 19109 19111 4 180.0000771 4.6024000 2
19107 19108 19117 19109 4 180.0000771 4.6024000 2
19107 19108 19117 19115 1 180.0000771 15.1670000 2
19107 19108 19117 19118 1 180.0000771 15.1670000 2
19109 19108 19117 19115 1 180.0000771 15.1670000 2
19109 19108 19117 19118 1 180.0000771 15.1670000 2
19110 19109 19108 19117 1 180.0000771 15.1670000 2
19111 19109 19108 19117 1 180.0000771 15.1670000 2
19108 19109 19111 19112 1 180.0000771 15.1670000 2
19108 19109 19111 19113 1 180.0000771 15.1670000 2
19110 19109 19111 19112 1 180.0000771 15.1670000 2
19110 19109 19111 19113 1 180.0000771 15.1670000 2
19109 19111 19113 19114 1 180.0000771 15.1670000 2
19109 19111 19113 19115 1 180.0000771 15.1670000 2
19112 19111 19113 19114 1 180.0000771 15.1670000 2
19112 19111 19113 19115 1 180.0000771 15.1670000 2
19109 19113 19111 19112 4 180.0000771 4.6024000 2
19111 19113 19115 19116 1 180.0000771 15.1670000 2
19111 19113 19115 19117 1 180.0000771 15.1670000 2
19114 19113 19115 19116 1 180.0000771 15.1670000 2
19114 19113 19115 19117 1 180.0000771 15.1670000 2
19111 19115 19113 19114 4 180.0000771 4.6024000 2
19108 19115 19117 19118 4 180.0000771 4.6024000 2
19113 19115 19117 19118 1 180.0000771 15.1670000 2
19116 19115 19117 19118 1 180.0000771 15.1670000 2
19108 19117 19115 19113 1 180.0000771 15.1670000 2
19108 19117 19115 19116 1 180.0000771 15.1670000 2
19113 19117 19115 19116 4 180.0000771 4.6024000 2
19119 19120 19121 19122 1 180.0000771 15.1670000 2
19119 19120 19121 19123 1 180.0000771 15.1670000 2
19122 19120 19121 19123 4 180.0000771 4.6024000 2
19119 19120 19129 19121 4 180.0000771 4.6024000 2
19119 19120 19129 19127 1 180.0000771 15.1670000 2
19119 19120 19129 19130 1 180.0000771 15.1670000 2
19121 19120 19129 19127 1 180.0000771 15.1670000 2
19121 19120 19129 19130 1 180.0000771 15.1670000 2
19122 19121 19120 19129 1 180.0000771 15.1670000 2
19123 19121 19120 19129 1 180.0000771 15.1670000 2
19120 19121 19123 19124 1 180.0000771 15.1670000 2
19120 19121 19123 19125 1 180.0000771 15.1670000 2
19122 19121 19123 19124 1 180.0000771 15.1670000 2
19122 19121 19123 19125 1 180.0000771 15.1670000 2
19121 19123 19125 19126 1 180.0000771 15.1670000 2
19121 19123 19125 19127 1 180.0000771 15.1670000 2
19124 19123 19125 19126 1 180.0000771 15.1670000 2
19124 19123 19125 19127 1 180.0000771 15.1670000 2
19121 19125 19123 19124 4 180.0000771 4.6024000 2
19123 19125 19127 19128 1 180.0000771 15.1670000 2
19123 19125 19127 19129 1 180.0000771 15.1670000 2
19126 19125 19127 19128 1 180.0000771 15.1670000 2
19126 19125 19127 19129 1 180.0000771 15.1670000 2
19123 19127 19125 19126 4 180.0000771 4.6024000 2
19120 19127 19129 19130 4 180.0000771 4.6024000 2
19125 19127 19129 19130 1 180.0000771 15.1670000 2
19128 19127 19129 19130 1 180.0000771 15.1670000 2
19120 19129 19127 19125 1 180.0000771 15.1670000 2
19120 19129 19127 19128 1 180.0000771 15.1670000 2
19125 19129 19127 19128 4 180.0000771 4.6024000 2
19131 19132 19133 19134 1 180.0000771 15.1670000 2
19131 19132 19133 19135 1 180.0000771 15.1670000 2
19134 19132 19133 19135 4 180.0000771 4.6024000 2
19131 19132 19141 19133 4 180.0000771 4.6024000 2
19131 19132 19141 19139 1 180.0000771 15.1670000 2
19131 19132 19141 19142 1 180.0000771 15.1670000 2
19133 19132 19141 19139 1 180.0000771 15.1670000 2
19133 19132 19141 19142 1 180.0000771 15.1670000 2
19134 19133 19132 19141 1 180.0000771 15.1670000 2
19135 19133 19132 19141 1 180.0000771 15.1670000 2
19132 19133 19135 19136 1 180.0000771 15.1670000 2
19132 19133 19135 19137 1 180.0000771 15.1670000 2
19134 19133 19135 19136 1 180.0000771 15.1670000 2
19134 19133 19135 19137 1 180.0000771 15.1670000 2
19133 19135 19137 19138 1 180.0000771 15.1670000 2
19133 19135 19137 19139 1 180.0000771 15.1670000 2
19136 19135 19137 19138 1 180.0000771 15.1670000 2
19136 19135 19137 19139 1 180.0000771 15.1670000 2
19133 19137 19135 19136 4 180.0000771 4.6024000 2
19135 19137 19139 19140 1 180.0000771 15.1670000 2
19135 19137 19139 19141 1 180.0000771 15.1670000 2
19138 19137 19139 19140 1 180.0000771 15.1670000 2
19138 19137 19139 19141 1 180.0000771 15.1670000 2
19135 19139 19137 19138 4 180.0000771 4.6024000 2
19132 19139 19141 19142 4 180.0000771 4.6024000 2
19137 19139 19141 19142 1 180.0000771 15.1670000 2
19140 19139 19141 19142 1 180.0000771 15.1670000 2
19132 19141 19139 19137 1 180.0000771 15.1670000 2
19132 19141 19139 19140 1 180.0000771 15.1670000 2
19137 19141 19139 19140 4 180.0000771 4.6024000 2
19143 19144 19145 19146 1 180.0000771 15.1670000 2
19143 19144 19145 19147 1 180.0000771 15.1670000 2
19146 19144 19145 19147 4 180.0000771 4.6024000 2
19143 19144 19153 19145 4 180.0000771 4.6024000 2
19143 19144 19153 19151 1 180.0000771 15.1670000 2
19143 19144 19153 19154 1 180.0000771 15.1670000 2
19145 19144 19153 19151 1 180.0000771 15.1670000 2
19145 19144 19153 19154 1 180.0000771 15.1670000 2
19146 19145 19144 19153 1 180.0000771 15.1670000 2
19147 19145 19144 19153 1 180.0000771 15.1670000 2
19144 19145 19147 19148 1 180.0000771 15.1670000 2
19144 19145 19147 19149 1 180.0000771 15.1670000 2
19146 19145 19147 19148 1 180.0000771 15.1670000 2
19146 19145 19147 19149 1 180.0000771 15.1670000 2
19145 19147 19149 19150 1 180.0000771 15.1670000 2
19145 19147 19149 19151 1 180.0000771 15.1670000 2
19148 19147 19149 19150 1 180.0000771 15.1670000 2
19148 19147 19149 19151 1 180.0000771 15.1670000 2
19145 19149 19147 19148 4 180.0000771 4.6024000 2
19147 19149 19151 19152 1 180.0000771 15.1670000 2
19147 19149 19151 19153 1 180.0000771 15.1670000 2
19150 19149 19151 19152 1 180.0000771 15.1670000 2
19150 19149 19151 19153 1 180.0000771 15.1670000 2
19147 19151 19149 19150 4 180.0000771 4.6024000 2
19144 19151 19153 19154 4 180.0000771 4.6024000 2
19149 19151 19153 19154 1 180.0000771 15.1670000 2
19152 19151 19153 19154 1 180.0000771 15.1670000 2
19144 19153 19151 19149 1 180.0000771 15.1670000 2
19144 19153 19151 19152 1 180.0000771 15.1670000 2
19149 19153 19151 19152 4 180.0000771 4.6024000 2
19155 19156 19157 19158 1 180.0000771 15.1670000 2
19155 19156 19157 19159 1 180.0000771 15.1670000 2
19158 19156 19157 19159 4 180.0000771 4.6024000 2
19155 19156 19165 19157 4 180.0000771 4.6024000 2
19155 19156 19165 19163 1 180.0000771 15.1670000 2
19155 19156 19165 19166 1 180.0000771 15.1670000 2
19157 19156 19165 19163 1 180.0000771 15.1670000 2
19157 19156 19165 19166 1 180.0000771 15.1670000 2
19158 19157 19156 19165 1 180.0000771 15.1670000 2
19159 19157 19156 19165 1 180.0000771 15.1670000 2
19156 19157 19159 19160 1 180.0000771 15.1670000 2
19156 19157 19159 19161 1 180.0000771 15.1670000 2
19158 19157 19159 19160 1 180.0000771 15.1670000 2
19158 19157 19159 19161 1 180.0000771 15.1670000 2
19157 19159 19161 19162 1 180.0000771 15.1670000 2
19157 19159 19161 19163 1 180.0000771 15.1670000 2
19160 19159 19161 19162 1 180.0000771 15.1670000 2
19160 19159 19161 19163 1 180.0000771 15.1670000 2
19157 19161 19159 19160 4 180.0000771 4.6024000 2
19159 19161 19163 19164 1 180.0000771 15.1670000 2
19159 19161 19163 19165 1 180.0000771 15.1670000 2
19162 19161 19163 19164 1 180.0000771 15.1670000 2
19162 19161 19163 19165 1 180.0000771 15.1670000 2
19159 19163 19161 19162 4 180.0000771 4.6024000 2
19156 19163 19165 19166 4 180.0000771 4.6024000 2
19161 19163 19165 19166 1 180.0000771 15.1670000 2
19164 19163 19165 19166 1 180.0000771 15.1670000 2
19156 19165 19163 19161 1 180.0000771 15.1670000 2
19156 19165 19163 19164 1 180.0000771 15.1670000 2
19161 19165 19163 19164 4 180.0000771 4.6024000 2
19167 19168 19169 19170 1 180.0000771 15.1670000 2
19167 19168 19169 19171 1 180.0000771 15.1670000 2
19170 19168 19169 19171 4 180.0000771 4.6024000 2
19167 19168 19177 19169 4 180.0000771 4.6024000 2
19167 19168 19177 19175 1 180.0000771 15.1670000 2
19167 19168 19177 19178 1 180.0000771 15.1670000 2
19169 19168 19177 19175 1 180.0000771 15.1670000 2
19169 19168 19177 19178 1 180.0000771 15.1670000 2
19170 19169 19168 19177 1 180.0000771 15.1670000 2
19171 19169 19168 19177 1 180.0000771 15.1670000 2
19168 19169 19171 19172 1 180.0000771 15.1670000 2
19168 19169 19171 19173 1 180.0000771 15.1670000 2
19170 19169 19171 19172 1 180.0000771 15.1670000 2
19170 19169 19171 19173 1 180.0000771 15.1670000 2
19169 19171 19173 19174 1 180.0000771 15.1670000 2
19169 19171 19173 19175 1 180.0000771 15.1670000 2
19172 19171 19173 19174 1 180.0000771 15.1670000 2
19172 19171 19173 19175 1 180.0000771 15.1670000 2
19169 19173 19171 19172 4 180.0000771 4.6024000 2
19171 19173 19175 19176 1 180.0000771 15.1670000 2
19171 19173 19175 19177 1 180.0000771 15.1670000 2
19174 19173 19175 19176 1 180.0000771 15.1670000 2
19174 19173 19175 19177 1 180.0000771 15.1670000 2
19171 19175 19173 19174 4 180.0000771 4.6024000 2
19168 19175 19177 19178 4 180.0000771 4.6024000 2
19173 19175 19177 19178 1 180.0000771 15.1670000 2
19176 19175 19177 19178 1 180.0000771 15.1670000 2
19168 19177 19175 19173 1 180.0000771 15.1670000 2
19168 19177 19175 19176 1 180.0000771 15.1670000 2
19173 19177 19175 19176 4 180.0000771 4.6024000 2
19179 19180 19181 19182 1 180.0000771 15.1670000 2
19179 19180 19181 19183 1 180.0000771 15.1670000 2
19182 19180 19181 19183 4 180.0000771 4.6024000 2
19179 19180 19189 19181 4 180.0000771 4.6024000 2
19179 19180 19189 19187 1 180.0000771 15.1670000 2
19179 19180 19189 19190 1 180.0000771 15.1670000 2
19181 19180 19189 19187 1 180.0000771 15.1670000 2
19181 19180 19189 19190 1 180.0000771 15.1670000 2
19182 19181 19180 19189 1 180.0000771 15.1670000 2
19183 19181 19180 19189 1 180.0000771 15.1670000 2
19180 19181 19183 19184 1 180.0000771 15.1670000 2
19180 19181 19183 19185 1 180.0000771 15.1670000 2
19182 19181 19183 19184 1 180.0000771 15.1670000 2
19182 19181 19183 19185 1 180.0000771 15.1670000 2
19181 19183 19185 19186 1 180.0000771 15.1670000 2
19181 19183 19185 19187 1 180.0000771 15.1670000 2
19184 19183 19185 19186 1 180.0000771 15.1670000 2
19184 19183 19185 19187 1 180.0000771 15.1670000 2
19181 19185 19183 19184 4 180.0000771 4.6024000 2
19183 19185 19187 19188 1 180.0000771 15.1670000 2
19183 19185 19187 19189 1 180.0000771 15.1670000 2
19186 19185 19187 19188 1 180.0000771 15.1670000 2
19186 19185 19187 19189 1 180.0000771 15.1670000 2
19183 19187 19185 19186 4 180.0000771 4.6024000 2
19180 19187 19189 19190 4 180.0000771 4.6024000 2
19185 19187 19189 19190 1 180.0000771 15.1670000 2
19188 19187 19189 19190 1 180.0000771 15.1670000 2
19180 19189 19187 19185 1 180.0000771 15.1670000 2
19180 19189 19187 19188 1 180.0000771 15.1670000 2
19185 19189 19187 19188 4 180.0000771 4.6024000 2
19191 19192 19193 19194 1 180.0000771 15.1670000 2
19191 19192 19193 19195 1 180.0000771 15.1670000 2
19194 19192 19193 19195 4 180.0000771 4.6024000 2
19191 19192 19201 19193 4 180.0000771 4.6024000 2
19191 19192 19201 19199 1 180.0000771 15.1670000 2
19191 19192 19201 19202 1 180.0000771 15.1670000 2
19193 19192 19201 19199 1 180.0000771 15.1670000 2
19193 19192 19201 19202 1 180.0000771 15.1670000 2
19194 19193 19192 19201 1 180.0000771 15.1670000 2
19195 19193 19192 19201 1 180.0000771 15.1670000 2
19192 19193 19195 19196 1 180.0000771 15.1670000 2
19192 19193 19195 19197 1 180.0000771 15.1670000 2
19194 19193 19195 19196 1 180.0000771 15.1670000 2
19194 19193 19195 19197 1 180.0000771 15.1670000 2
19193 19195 19197 19198 1 180.0000771 15.1670000 2
19193 19195 19197 19199 1 180.0000771 15.1670000 2
19196 19195 19197 19198 1 180.0000771 15.1670000 2
19196 19195 19197 19199 1 180.0000771 15.1670000 2
19193 19197 19195 19196 4 180.0000771 4.6024000 2
19195 19197 19199 19200 1 180.0000771 15.1670000 2
19195 19197 19199 19201 1 180.0000771 15.1670000 2
19198 19197 19199 19200 1 180.0000771 15.1670000 2
19198 19197 19199 19201 1 180.0000771 15.1670000 2
19195 19199 19197 19198 4 180.0000771 4.6024000 2
19192 19199 19201 19202 4 180.0000771 4.6024000 2
19197 19199 19201 19202 1 180.0000771 15.1670000 2
19200 19199 19201 19202 1 180.0000771 15.1670000 2
19192 19201 19199 19197 1 180.0000771 15.1670000 2
19192 19201 19199 19200 1 180.0000771 15.1670000 2
19197 19201 19199 19200 4 180.0000771 4.6024000 2
19203 19204 19205 19206 1 180.0000771 15.1670000 2
19203 19204 19205 19207 1 180.0000771 15.1670000 2
19206 19204 19205 19207 4 180.0000771 4.6024000 2
19203 19204 19213 19205 4 180.0000771 4.6024000 2
19203 19204 19213 19211 1 180.0000771 15.1670000 2
19203 19204 19213 19214 1 180.0000771 15.1670000 2
19205 19204 19213 19211 1 180.0000771 15.1670000 2
19205 19204 19213 19214 1 180.0000771 15.1670000 2
19206 19205 19204 19213 1 180.0000771 15.1670000 2
19207 19205 19204 19213 1 180.0000771 15.1670000 2
19204 19205 19207 19208 1 180.0000771 15.1670000 2
19204 19205 19207 19209 1 180.0000771 15.1670000 2
19206 19205 19207 19208 1 180.0000771 15.1670000 2
19206 19205 19207 19209 1 180.0000771 15.1670000 2
19205 19207 19209 19210 1 180.0000771 15.1670000 2
19205 19207 19209 19211 1 180.0000771 15.1670000 2
19208 19207 19209 19210 1 180.0000771 15.1670000 2
19208 19207 19209 19211 1 180.0000771 15.1670000 2
19205 19209 19207 19208 4 180.0000771 4.6024000 2
19207 19209 19211 19212 1 180.0000771 15.1670000 2
19207 19209 19211 19213 1 180.0000771 15.1670000 2
19210 19209 19211 19212 1 180.0000771 15.1670000 2
19210 19209 19211 19213 1 180.0000771 15.1670000 2
19207 19211 19209 19210 4 180.0000771 4.6024000 2
19204 19211 19213 19214 4 180.0000771 4.6024000 2
19209 19211 19213 19214 1 180.0000771 15.1670000 2
19212 19211 19213 19214 1 180.0000771 15.1670000 2
19204 19213 19211 19209 1 180.0000771 15.1670000 2
19204 19213 19211 19212 1 180.0000771 15.1670000 2
19209 19213 19211 19212 4 180.0000771 4.6024000 2
19215 19216 19217 19218 1 180.0000771 15.1670000 2
19215 19216 19217 19219 1 180.0000771 15.1670000 2
19218 19216 19217 19219 4 180.0000771 4.6024000 2
19215 19216 19225 19217 4 180.0000771 4.6024000 2
19215 19216 19225 19223 1 180.0000771 15.1670000 2
19215 19216 19225 19226 1 180.0000771 15.1670000 2
19217 19216 19225 19223 1 180.0000771 15.1670000 2
19217 19216 19225 19226 1 180.0000771 15.1670000 2
19218 19217 19216 19225 1 180.0000771 15.1670000 2
19219 19217 19216 19225 1 180.0000771 15.1670000 2
19216 19217 19219 19220 1 180.0000771 15.1670000 2
19216 19217 19219 19221 1 180.0000771 15.1670000 2
19218 19217 19219 19220 1 180.0000771 15.1670000 2
19218 19217 19219 19221 1 180.0000771 15.1670000 2
19217 19219 19221 19222 1 180.0000771 15.1670000 2
19217 19219 19221 19223 1 180.0000771 15.1670000 2
19220 19219 19221 19222 1 180.0000771 15.1670000 2
19220 19219 19221 19223 1 180.0000771 15.1670000 2
19217 19221 19219 19220 4 180.0000771 4.6024000 2
19219 19221 19223 19224 1 180.0000771 15.1670000 2
19219 19221 19223 19225 1 180.0000771 15.1670000 2
19222 19221 19223 19224 1 180.0000771 15.1670000 2
19222 19221 19223 19225 1 180.0000771 15.1670000 2
19219 19223 19221 19222 4 180.0000771 4.6024000 2
19216 19223 19225 19226 4 180.0000771 4.6024000 2
19221 19223 19225 19226 1 180.0000771 15.1670000 2
19224 19223 19225 19226 1 180.0000771 15.1670000 2
19216 19225 19223 19221 1 180.0000771 15.1670000 2
19216 19225 19223 19224 1 180.0000771 15.1670000 2
19221 19225 19223 19224 4 180.0000771 4.6024000 2
19227 19228 19229 19230 1 180.0000771 15.1670000 2
19227 19228 19229 19231 1 180.0000771 15.1670000 2
19230 19228 19229 19231 4 180.0000771 4.6024000 2
19227 19228 19237 19229 4 180.0000771 4.6024000 2
19227 19228 19237 19235 1 180.0000771 15.1670000 2
19227 19228 19237 19238 1 180.0000771 15.1670000 2
19229 19228 19237 19235 1 180.0000771 15.1670000 2
19229 19228 19237 19238 1 180.0000771 15.1670000 2
19230 19229 19228 19237 1 180.0000771 15.1670000 2
19231 19229 19228 19237 1 180.0000771 15.1670000 2
19228 19229 19231 19232 1 180.0000771 15.1670000 2
19228 19229 19231 19233 1 180.0000771 15.1670000 2
19230 19229 19231 19232 1 180.0000771 15.1670000 2
19230 19229 19231 19233 1 180.0000771 15.1670000 2
19229 19231 19233 19234 1 180.0000771 15.1670000 2
19229 19231 19233 19235 1 180.0000771 15.1670000 2
19232 19231 19233 19234 1 180.0000771 15.1670000 2
19232 19231 19233 19235 1 180.0000771 15.1670000 2
19229 19233 19231 19232 4 180.0000771 4.6024000 2
19231 19233 19235 19236 1 180.0000771 15.1670000 2
19231 19233 19235 19237 1 180.0000771 15.1670000 2
19234 19233 19235 19236 1 180.0000771 15.1670000 2
19234 19233 19235 19237 1 180.0000771 15.1670000 2
19231 19235 19233 19234 4 180.0000771 4.6024000 2
19228 19235 19237 19238 4 180.0000771 4.6024000 2
19233 19235 19237 19238 1 180.0000771 15.1670000 2
19236 19235 19237 19238 1 180.0000771 15.1670000 2
19228 19237 19235 19233 1 180.0000771 15.1670000 2
19228 19237 19235 19236 1 180.0000771 15.1670000 2
19233 19237 19235 19236 4 180.0000771 4.6024000 2
19239 19240 19241 19242 1 180.0000771 15.1670000 2
19239 19240 19241 19243 1 180.0000771 15.1670000 2
19242 19240 19241 19243 4 180.0000771 4.6024000 2
19239 19240 19249 19241 4 180.0000771 4.6024000 2
19239 19240 19249 19247 1 180.0000771 15.1670000 2
19239 19240 19249 19250 1 180.0000771 15.1670000 2
19241 19240 19249 19247 1 180.0000771 15.1670000 2
19241 19240 19249 19250 1 180.0000771 15.1670000 2
19242 19241 19240 19249 1 180.0000771 15.1670000 2
19243 19241 19240 19249 1 180.0000771 15.1670000 2
19240 19241 19243 19244 1 180.0000771 15.1670000 2
19240 19241 19243 19245 1 180.0000771 15.1670000 2
19242 19241 19243 19244 1 180.0000771 15.1670000 2
19242 19241 19243 19245 1 180.0000771 15.1670000 2
19241 19243 19245 19246 1 180.0000771 15.1670000 2
19241 19243 19245 19247 1 180.0000771 15.1670000 2
19244 19243 19245 19246 1 180.0000771 15.1670000 2
19244 19243 19245 19247 1 180.0000771 15.1670000 2
19241 19245 19243 19244 4 180.0000771 4.6024000 2
19243 19245 19247 19248 1 180.0000771 15.1670000 2
19243 19245 19247 19249 1 180.0000771 15.1670000 2
19246 19245 19247 19248 1 180.0000771 15.1670000 2
19246 19245 19247 19249 1 180.0000771 15.1670000 2
19243 19247 19245 19246 4 180.0000771 4.6024000 2
19240 19247 19249 19250 4 180.0000771 4.6024000 2
19245 19247 19249 19250 1 180.0000771 15.1670000 2
19248 19247 19249 19250 1 180.0000771 15.1670000 2
19240 19249 19247 19245 1 180.0000771 15.1670000 2
19240 19249 19247 19248 1 180.0000771 15.1670000 2
19245 19249 19247 19248 4 180.0000771 4.6024000 2
19251 19252 19253 19254 1 180.0000771 15.1670000 2
19251 19252 19253 19255 1 180.0000771 15.1670000 2
19254 19252 19253 19255 4 180.0000771 4.6024000 2
19251 19252 19261 19253 4 180.0000771 4.6024000 2
19251 19252 19261 19259 1 180.0000771 15.1670000 2
19251 19252 19261 19262 1 180.0000771 15.1670000 2
19253 19252 19261 19259 1 180.0000771 15.1670000 2
19253 19252 19261 19262 1 180.0000771 15.1670000 2
19254 19253 19252 19261 1 180.0000771 15.1670000 2
19255 19253 19252 19261 1 180.0000771 15.1670000 2
19252 19253 19255 19256 1 180.0000771 15.1670000 2
19252 19253 19255 19257 1 180.0000771 15.1670000 2
19254 19253 19255 19256 1 180.0000771 15.1670000 2
19254 19253 19255 19257 1 180.0000771 15.1670000 2
19253 19255 19257 19258 1 180.0000771 15.1670000 2
19253 19255 19257 19259 1 180.0000771 15.1670000 2
19256 19255 19257 19258 1 180.0000771 15.1670000 2
19256 19255 19257 19259 1 180.0000771 15.1670000 2
19253 19257 19255 19256 4 180.0000771 4.6024000 2
19255 19257 19259 19260 1 180.0000771 15.1670000 2
19255 19257 19259 19261 1 180.0000771 15.1670000 2
19258 19257 19259 19260 1 180.0000771 15.1670000 2
19258 19257 19259 19261 1 180.0000771 15.1670000 2
19255 19259 19257 19258 4 180.0000771 4.6024000 2
19252 19259 19261 19262 4 180.0000771 4.6024000 2
19257 19259 19261 19262 1 180.0000771 15.1670000 2
19260 19259 19261 19262 1 180.0000771 15.1670000 2
19252 19261 19259 19257 1 180.0000771 15.1670000 2
19252 19261 19259 19260 1 180.0000771 15.1670000 2
19257 19261 19259 19260 4 180.0000771 4.6024000 2
19263 19264 19265 19266 1 180.0000771 15.1670000 2
19263 19264 19265 19267 1 180.0000771 15.1670000 2
19266 19264 19265 19267 4 180.0000771 4.6024000 2
19263 19264 19273 19265 4 180.0000771 4.6024000 2
19263 19264 19273 19271 1 180.0000771 15.1670000 2
19263 19264 19273 19274 1 180.0000771 15.1670000 2
19265 19264 19273 19271 1 180.0000771 15.1670000 2
19265 19264 19273 19274 1 180.0000771 15.1670000 2
19266 19265 19264 19273 1 180.0000771 15.1670000 2
19267 19265 19264 19273 1 180.0000771 15.1670000 2
19264 19265 19267 19268 1 180.0000771 15.1670000 2
19264 19265 19267 19269 1 180.0000771 15.1670000 2
19266 19265 19267 19268 1 180.0000771 15.1670000 2
19266 19265 19267 19269 1 180.0000771 15.1670000 2
19265 19267 19269 19270 1 180.0000771 15.1670000 2
19265 19267 19269 19271 1 180.0000771 15.1670000 2
19268 19267 19269 19270 1 180.0000771 15.1670000 2
19268 19267 19269 19271 1 180.0000771 15.1670000 2
19265 19269 19267 19268 4 180.0000771 4.6024000 2
19267 19269 19271 19272 1 180.0000771 15.1670000 2
19267 19269 19271 19273 1 180.0000771 15.1670000 2
19270 19269 19271 19272 1 180.0000771 15.1670000 2
19270 19269 19271 19273 1 180.0000771 15.1670000 2
19267 19271 19269 19270 4 180.0000771 4.6024000 2
19264 19271 19273 19274 4 180.0000771 4.6024000 2
19269 19271 19273 19274 1 180.0000771 15.1670000 2
19272 19271 19273 19274 1 180.0000771 15.1670000 2
19264 19273 19271 19269 1 180.0000771 15.1670000 2
19264 19273 19271 19272 1 180.0000771 15.1670000 2
19269 19273 19271 19272 4 180.0000771 4.6024000 2
19275 19276 19277 19278 1 180.0000771 15.1670000 2
19275 19276 19277 19279 1 180.0000771 15.1670000 2
19278 19276 19277 19279 4 180.0000771 4.6024000 2
19275 19276 19285 19277 4 180.0000771 4.6024000 2
19275 19276 19285 19283 1 180.0000771 15.1670000 2
19275 19276 19285 19286 1 180.0000771 15.1670000 2
19277 19276 19285 19283 1 180.0000771 15.1670000 2
19277 19276 19285 19286 1 180.0000771 15.1670000 2
19278 19277 19276 19285 1 180.0000771 15.1670000 2
19279 19277 19276 19285 1 180.0000771 15.1670000 2
19276 19277 19279 19280 1 180.0000771 15.1670000 2
19276 19277 19279 19281 1 180.0000771 15.1670000 2
19278 19277 19279 19280 1 180.0000771 15.1670000 2
19278 19277 19279 19281 1 180.0000771 15.1670000 2
19277 19279 19281 19282 1 180.0000771 15.1670000 2
19277 19279 19281 19283 1 180.0000771 15.1670000 2
19280 19279 19281 19282 1 180.0000771 15.1670000 2
19280 19279 19281 19283 1 180.0000771 15.1670000 2
19277 19281 19279 19280 4 180.0000771 4.6024000 2
19279 19281 19283 19284 1 180.0000771 15.1670000 2
19279 19281 19283 19285 1 180.0000771 15.1670000 2
19282 19281 19283 19284 1 180.0000771 15.1670000 2
19282 19281 19283 19285 1 180.0000771 15.1670000 2
19279 19283 19281 19282 4 180.0000771 4.6024000 2
19276 19283 19285 19286 4 180.0000771 4.6024000 2
19281 19283 19285 19286 1 180.0000771 15.1670000 2
19284 19283 19285 19286 1 180.0000771 15.1670000 2
19276 19285 19283 19281 1 180.0000771 15.1670000 2
19276 19285 19283 19284 1 180.0000771 15.1670000 2
19281 19285 19283 19284 4 180.0000771 4.6024000 2
19287 19288 19289 19290 1 180.0000771 15.1670000 2
19287 19288 19289 19291 1 180.0000771 15.1670000 2
19290 19288 19289 19291 4 180.0000771 4.6024000 2
19287 19288 19297 19289 4 180.0000771 4.6024000 2
19287 19288 19297 19295 1 180.0000771 15.1670000 2
19287 19288 19297 19298 1 180.0000771 15.1670000 2
19289 19288 19297 19295 1 180.0000771 15.1670000 2
19289 19288 19297 19298 1 180.0000771 15.1670000 2
19290 19289 19288 19297 1 180.0000771 15.1670000 2
19291 19289 19288 19297 1 180.0000771 15.1670000 2
19288 19289 19291 19292 1 180.0000771 15.1670000 2
19288 19289 19291 19293 1 180.0000771 15.1670000 2
19290 19289 19291 19292 1 180.0000771 15.1670000 2
19290 19289 19291 19293 1 180.0000771 15.1670000 2
19289 19291 19293 19294 1 180.0000771 15.1670000 2
19289 19291 19293 19295 1 180.0000771 15.1670000 2
19292 19291 19293 19294 1 180.0000771 15.1670000 2
19292 19291 19293 19295 1 180.0000771 15.1670000 2
19289 19293 19291 19292 4 180.0000771 4.6024000 2
19291 19293 19295 19296 1 180.0000771 15.1670000 2
19291 19293 19295 19297 1 180.0000771 15.1670000 2
19294 19293 19295 19296 1 180.0000771 15.1670000 2
19294 19293 19295 19297 1 180.0000771 15.1670000 2
19291 19295 19293 19294 4 180.0000771 4.6024000 2
19288 19295 19297 19298 4 180.0000771 4.6024000 2
19293 19295 19297 19298 1 180.0000771 15.1670000 2
19296 19295 19297 19298 1 180.0000771 15.1670000 2
19288 19297 19295 19293 1 180.0000771 15.1670000 2
19288 19297 19295 19296 1 180.0000771 15.1670000 2
19293 19297 19295 19296 4 180.0000771 4.6024000 2
19299 19300 19301 19302 1 180.0000771 15.1670000 2
19299 19300 19301 19303 1 180.0000771 15.1670000 2
19302 19300 19301 19303 4 180.0000771 4.6024000 2
19299 19300 19309 19301 4 180.0000771 4.6024000 2
19299 19300 19309 19307 1 180.0000771 15.1670000 2
19299 19300 19309 19310 1 180.0000771 15.1670000 2
19301 19300 19309 19307 1 180.0000771 15.1670000 2
19301 19300 19309 19310 1 180.0000771 15.1670000 2
19302 19301 19300 19309 1 180.0000771 15.1670000 2
19303 19301 19300 19309 1 180.0000771 15.1670000 2
19300 19301 19303 19304 1 180.0000771 15.1670000 2
19300 19301 19303 19305 1 180.0000771 15.1670000 2
19302 19301 19303 19304 1 180.0000771 15.1670000 2
19302 19301 19303 19305 1 180.0000771 15.1670000 2
19301 19303 19305 19306 1 180.0000771 15.1670000 2
19301 19303 19305 19307 1 180.0000771 15.1670000 2
19304 19303 19305 19306 1 180.0000771 15.1670000 2
19304 19303 19305 19307 1 180.0000771 15.1670000 2
19301 19305 19303 19304 4 180.0000771 4.6024000 2
19303 19305 19307 19308 1 180.0000771 15.1670000 2
19303 19305 19307 19309 1 180.0000771 15.1670000 2
19306 19305 19307 19308 1 180.0000771 15.1670000 2
19306 19305 19307 19309 1 180.0000771 15.1670000 2
19303 19307 19305 19306 4 180.0000771 4.6024000 2
19300 19307 19309 19310 4 180.0000771 4.6024000 2
19305 19307 19309 19310 1 180.0000771 15.1670000 2
19308 19307 19309 19310 1 180.0000771 15.1670000 2
19300 19309 19307 19305 1 180.0000771 15.1670000 2
19300 19309 19307 19308 1 180.0000771 15.1670000 2
19305 19309 19307 19308 4 180.0000771 4.6024000 2
19311 19312 19313 19314 1 180.0000771 15.1670000 2
19311 19312 19313 19315 1 180.0000771 15.1670000 2
19314 19312 19313 19315 4 180.0000771 4.6024000 2
19311 19312 19321 19313 4 180.0000771 4.6024000 2
19311 19312 19321 19319 1 180.0000771 15.1670000 2
19311 19312 19321 19322 1 180.0000771 15.1670000 2
19313 19312 19321 19319 1 180.0000771 15.1670000 2
19313 19312 19321 19322 1 180.0000771 15.1670000 2
19314 19313 19312 19321 1 180.0000771 15.1670000 2
19315 19313 19312 19321 1 180.0000771 15.1670000 2
19312 19313 19315 19316 1 180.0000771 15.1670000 2
19312 19313 19315 19317 1 180.0000771 15.1670000 2
19314 19313 19315 19316 1 180.0000771 15.1670000 2
19314 19313 19315 19317 1 180.0000771 15.1670000 2
19313 19315 19317 19318 1 180.0000771 15.1670000 2
19313 19315 19317 19319 1 180.0000771 15.1670000 2
19316 19315 19317 19318 1 180.0000771 15.1670000 2
19316 19315 19317 19319 1 180.0000771 15.1670000 2
19313 19317 19315 19316 4 180.0000771 4.6024000 2
19315 19317 19319 19320 1 180.0000771 15.1670000 2
19315 19317 19319 19321 1 180.0000771 15.1670000 2
19318 19317 19319 19320 1 180.0000771 15.1670000 2
19318 19317 19319 19321 1 180.0000771 15.1670000 2
19315 19319 19317 19318 4 180.0000771 4.6024000 2
19312 19319 19321 19322 4 180.0000771 4.6024000 2
19317 19319 19321 19322 1 180.0000771 15.1670000 2
19320 19319 19321 19322 1 180.0000771 15.1670000 2
19312 19321 19319 19317 1 180.0000771 15.1670000 2
19312 19321 19319 19320 1 180.0000771 15.1670000 2
19317 19321 19319 19320 4 180.0000771 4.6024000 2
19323 19324 19325 19326 1 180.0000771 15.1670000 2
19323 19324 19325 19327 1 180.0000771 15.1670000 2
19326 19324 19325 19327 4 180.0000771 4.6024000 2
19323 19324 19333 19325 4 180.0000771 4.6024000 2
19323 19324 19333 19331 1 180.0000771 15.1670000 2
19323 19324 19333 19334 1 180.0000771 15.1670000 2
19325 19324 19333 19331 1 180.0000771 15.1670000 2
19325 19324 19333 19334 1 180.0000771 15.1670000 2
19326 19325 19324 19333 1 180.0000771 15.1670000 2
19327 19325 19324 19333 1 180.0000771 15.1670000 2
19324 19325 19327 19328 1 180.0000771 15.1670000 2
19324 19325 19327 19329 1 180.0000771 15.1670000 2
19326 19325 19327 19328 1 180.0000771 15.1670000 2
19326 19325 19327 19329 1 180.0000771 15.1670000 2
19325 19327 19329 19330 1 180.0000771 15.1670000 2
19325 19327 19329 19331 1 180.0000771 15.1670000 2
19328 19327 19329 19330 1 180.0000771 15.1670000 2
19328 19327 19329 19331 1 180.0000771 15.1670000 2
19325 19329 19327 19328 4 180.0000771 4.6024000 2
19327 19329 19331 19332 1 180.0000771 15.1670000 2
19327 19329 19331 19333 1 180.0000771 15.1670000 2
19330 19329 19331 19332 1 180.0000771 15.1670000 2
19330 19329 19331 19333 1 180.0000771 15.1670000 2
19327 19331 19329 19330 4 180.0000771 4.6024000 2
19324 19331 19333 19334 4 180.0000771 4.6024000 2
19329 19331 19333 19334 1 180.0000771 15.1670000 2
19332 19331 19333 19334 1 180.0000771 15.1670000 2
19324 19333 19331 19329 1 180.0000771 15.1670000 2
19324 19333 19331 19332 1 180.0000771 15.1670000 2
19329 19333 19331 19332 4 180.0000771 4.6024000 2
19335 19336 19337 19338 1 180.0000771 15.1670000 2
19335 19336 19337 19339 1 180.0000771 15.1670000 2
19338 19336 19337 19339 4 180.0000771 4.6024000 2
19335 19336 19345 19337 4 180.0000771 4.6024000 2
19335 19336 19345 19343 1 180.0000771 15.1670000 2
19335 19336 19345 19346 1 180.0000771 15.1670000 2
19337 19336 19345 19343 1 180.0000771 15.1670000 2
19337 19336 19345 19346 1 180.0000771 15.1670000 2
19338 19337 19336 19345 1 180.0000771 15.1670000 2
19339 19337 19336 19345 1 180.0000771 15.1670000 2
19336 19337 19339 19340 1 180.0000771 15.1670000 2
19336 19337 19339 19341 1 180.0000771 15.1670000 2
19338 19337 19339 19340 1 180.0000771 15.1670000 2
19338 19337 19339 19341 1 180.0000771 15.1670000 2
19337 19339 19341 19342 1 180.0000771 15.1670000 2
19337 19339 19341 19343 1 180.0000771 15.1670000 2
19340 19339 19341 19342 1 180.0000771 15.1670000 2
19340 19339 19341 19343 1 180.0000771 15.1670000 2
19337 19341 19339 19340 4 180.0000771 4.6024000 2
19339 19341 19343 19344 1 180.0000771 15.1670000 2
19339 19341 19343 19345 1 180.0000771 15.1670000 2
19342 19341 19343 19344 1 180.0000771 15.1670000 2
19342 19341 19343 19345 1 180.0000771 15.1670000 2
19339 19343 19341 19342 4 180.0000771 4.6024000 2
19336 19343 19345 19346 4 180.0000771 4.6024000 2
19341 19343 19345 19346 1 180.0000771 15.1670000 2
19344 19343 19345 19346 1 180.0000771 15.1670000 2
19336 19345 19343 19341 1 180.0000771 15.1670000 2
19336 19345 19343 19344 1 180.0000771 15.1670000 2
19341 19345 19343 19344 4 180.0000771 4.6024000 2
19347 19348 19349 19350 1 180.0000771 15.1670000 2
19347 19348 19349 19351 1 180.0000771 15.1670000 2
19350 19348 19349 19351 4 180.0000771 4.6024000 2
19347 19348 19357 19349 4 180.0000771 4.6024000 2
19347 19348 19357 19355 1 180.0000771 15.1670000 2
19347 19348 19357 19358 1 180.0000771 15.1670000 2
19349 19348 19357 19355 1 180.0000771 15.1670000 2
19349 19348 19357 19358 1 180.0000771 15.1670000 2
19350 19349 19348 19357 1 180.0000771 15.1670000 2
19351 19349 19348 19357 1 180.0000771 15.1670000 2
19348 19349 19351 19352 1 180.0000771 15.1670000 2
19348 19349 19351 19353 1 180.0000771 15.1670000 2
19350 19349 19351 19352 1 180.0000771 15.1670000 2
19350 19349 19351 19353 1 180.0000771 15.1670000 2
19349 19351 19353 19354 1 180.0000771 15.1670000 2
19349 19351 19353 19355 1 180.0000771 15.1670000 2
19352 19351 19353 19354 1 180.0000771 15.1670000 2
19352 19351 19353 19355 1 180.0000771 15.1670000 2
19349 19353 19351 19352 4 180.0000771 4.6024000 2
19351 19353 19355 19356 1 180.0000771 15.1670000 2
19351 19353 19355 19357 1 180.0000771 15.1670000 2
19354 19353 19355 19356 1 180.0000771 15.1670000 2
19354 19353 19355 19357 1 180.0000771 15.1670000 2
19351 19355 19353 19354 4 180.0000771 4.6024000 2
19348 19355 19357 19358 4 180.0000771 4.6024000 2
19353 19355 19357 19358 1 180.0000771 15.1670000 2
19356 19355 19357 19358 1 180.0000771 15.1670000 2
19348 19357 19355 19353 1 180.0000771 15.1670000 2
19348 19357 19355 19356 1 180.0000771 15.1670000 2
19353 19357 19355 19356 4 180.0000771 4.6024000 2
19359 19360 19361 19362 1 180.0000771 15.1670000 2
19359 19360 19361 19363 1 180.0000771 15.1670000 2
19362 19360 19361 19363 4 180.0000771 4.6024000 2
19359 19360 19369 19361 4 180.0000771 4.6024000 2
19359 19360 19369 19367 1 180.0000771 15.1670000 2
19359 19360 19369 19370 1 180.0000771 15.1670000 2
19361 19360 19369 19367 1 180.0000771 15.1670000 2
19361 19360 19369 19370 1 180.0000771 15.1670000 2
19362 19361 19360 19369 1 180.0000771 15.1670000 2
19363 19361 19360 19369 1 180.0000771 15.1670000 2
19360 19361 19363 19364 1 180.0000771 15.1670000 2
19360 19361 19363 19365 1 180.0000771 15.1670000 2
19362 19361 19363 19364 1 180.0000771 15.1670000 2
19362 19361 19363 19365 1 180.0000771 15.1670000 2
19361 19363 19365 19366 1 180.0000771 15.1670000 2
19361 19363 19365 19367 1 180.0000771 15.1670000 2
19364 19363 19365 19366 1 180.0000771 15.1670000 2
19364 19363 19365 19367 1 180.0000771 15.1670000 2
19361 19365 19363 19364 4 180.0000771 4.6024000 2
19363 19365 19367 19368 1 180.0000771 15.1670000 2
19363 19365 19367 19369 1 180.0000771 15.1670000 2
19366 19365 19367 19368 1 180.0000771 15.1670000 2
19366 19365 19367 19369 1 180.0000771 15.1670000 2
19363 19367 19365 19366 4 180.0000771 4.6024000 2
19360 19367 19369 19370 4 180.0000771 4.6024000 2
19365 19367 19369 19370 1 180.0000771 15.1670000 2
19368 19367 19369 19370 1 180.0000771 15.1670000 2
19360 19369 19367 19365 1 180.0000771 15.1670000 2
19360 19369 19367 19368 1 180.0000771 15.1670000 2
19365 19369 19367 19368 4 180.0000771 4.6024000 2
19371 19372 19373 19374 1 180.0000771 15.1670000 2
19371 19372 19373 19375 1 180.0000771 15.1670000 2
19374 19372 19373 19375 4 180.0000771 4.6024000 2
19371 19372 19381 19373 4 180.0000771 4.6024000 2
19371 19372 19381 19379 1 180.0000771 15.1670000 2
19371 19372 19381 19382 1 180.0000771 15.1670000 2
19373 19372 19381 19379 1 180.0000771 15.1670000 2
19373 19372 19381 19382 1 180.0000771 15.1670000 2
19374 19373 19372 19381 1 180.0000771 15.1670000 2
19375 19373 19372 19381 1 180.0000771 15.1670000 2
19372 19373 19375 19376 1 180.0000771 15.1670000 2
19372 19373 19375 19377 1 180.0000771 15.1670000 2
19374 19373 19375 19376 1 180.0000771 15.1670000 2
19374 19373 19375 19377 1 180.0000771 15.1670000 2
19373 19375 19377 19378 1 180.0000771 15.1670000 2
19373 19375 19377 19379 1 180.0000771 15.1670000 2
19376 19375 19377 19378 1 180.0000771 15.1670000 2
19376 19375 19377 19379 1 180.0000771 15.1670000 2
19373 19377 19375 19376 4 180.0000771 4.6024000 2
19375 19377 19379 19380 1 180.0000771 15.1670000 2
19375 19377 19379 19381 1 180.0000771 15.1670000 2
19378 19377 19379 19380 1 180.0000771 15.1670000 2
19378 19377 19379 19381 1 180.0000771 15.1670000 2
19375 19379 19377 19378 4 180.0000771 4.6024000 2
19372 19379 19381 19382 4 180.0000771 4.6024000 2
19377 19379 19381 19382 1 180.0000771 15.1670000 2
19380 19379 19381 19382 1 180.0000771 15.1670000 2
19372 19381 19379 19377 1 180.0000771 15.1670000 2
19372 19381 19379 19380 1 180.0000771 15.1670000 2
19377 19381 19379 19380 4 180.0000771 4.6024000 2
19383 19384 19385 19386 1 180.0000771 15.1670000 2
19383 19384 19385 19387 1 180.0000771 15.1670000 2
19386 19384 19385 19387 4 180.0000771 4.6024000 2
19383 19384 19393 19385 4 180.0000771 4.6024000 2
19383 19384 19393 19391 1 180.0000771 15.1670000 2
19383 19384 19393 19394 1 180.0000771 15.1670000 2
19385 19384 19393 19391 1 180.0000771 15.1670000 2
19385 19384 19393 19394 1 180.0000771 15.1670000 2
19386 19385 19384 19393 1 180.0000771 15.1670000 2
19387 19385 19384 19393 1 180.0000771 15.1670000 2
19384 19385 19387 19388 1 180.0000771 15.1670000 2
19384 19385 19387 19389 1 180.0000771 15.1670000 2
19386 19385 19387 19388 1 180.0000771 15.1670000 2
19386 19385 19387 19389 1 180.0000771 15.1670000 2
19385 19387 19389 19390 1 180.0000771 15.1670000 2
19385 19387 19389 19391 1 180.0000771 15.1670000 2
19388 19387 19389 19390 1 180.0000771 15.1670000 2
19388 19387 19389 19391 1 180.0000771 15.1670000 2
19385 19389 19387 19388 4 180.0000771 4.6024000 2
19387 19389 19391 19392 1 180.0000771 15.1670000 2
19387 19389 19391 19393 1 180.0000771 15.1670000 2
19390 19389 19391 19392 1 180.0000771 15.1670000 2
19390 19389 19391 19393 1 180.0000771 15.1670000 2
19387 19391 19389 19390 4 180.0000771 4.6024000 2
19384 19391 19393 19394 4 180.0000771 4.6024000 2
19389 19391 19393 19394 1 180.0000771 15.1670000 2
19392 19391 19393 19394 1 180.0000771 15.1670000 2
19384 19393 19391 19389 1 180.0000771 15.1670000 2
19384 19393 19391 19392 1 180.0000771 15.1670000 2
19389 19393 19391 19392 4 180.0000771 4.6024000 2
19395 19396 19397 19398 1 180.0000771 15.1670000 2
19395 19396 19397 19399 1 180.0000771 15.1670000 2
19398 19396 19397 19399 4 180.0000771 4.6024000 2
19395 19396 19405 19397 4 180.0000771 4.6024000 2
19395 19396 19405 19403 1 180.0000771 15.1670000 2
19395 19396 19405 19406 1 180.0000771 15.1670000 2
19397 19396 19405 19403 1 180.0000771 15.1670000 2
19397 19396 19405 19406 1 180.0000771 15.1670000 2
19398 19397 19396 19405 1 180.0000771 15.1670000 2
19399 19397 19396 19405 1 180.0000771 15.1670000 2
19396 19397 19399 19400 1 180.0000771 15.1670000 2
19396 19397 19399 19401 1 180.0000771 15.1670000 2
19398 19397 19399 19400 1 180.0000771 15.1670000 2
19398 19397 19399 19401 1 180.0000771 15.1670000 2
19397 19399 19401 19402 1 180.0000771 15.1670000 2
19397 19399 19401 19403 1 180.0000771 15.1670000 2
19400 19399 19401 19402 1 180.0000771 15.1670000 2
19400 19399 19401 19403 1 180.0000771 15.1670000 2
19397 19401 19399 19400 4 180.0000771 4.6024000 2
19399 19401 19403 19404 1 180.0000771 15.1670000 2
19399 19401 19403 19405 1 180.0000771 15.1670000 2
19402 19401 19403 19404 1 180.0000771 15.1670000 2
19402 19401 19403 19405 1 180.0000771 15.1670000 2
19399 19403 19401 19402 4 180.0000771 4.6024000 2
19396 19403 19405 19406 4 180.0000771 4.6024000 2
19401 19403 19405 19406 1 180.0000771 15.1670000 2
19404 19403 19405 19406 1 180.0000771 15.1670000 2
19396 19405 19403 19401 1 180.0000771 15.1670000 2
19396 19405 19403 19404 1 180.0000771 15.1670000 2
19401 19405 19403 19404 4 180.0000771 4.6024000 2
19407 19408 19409 19410 1 180.0000771 15.1670000 2
19407 19408 19409 19411 1 180.0000771 15.1670000 2
19410 19408 19409 19411 4 180.0000771 4.6024000 2
19407 19408 19417 19409 4 180.0000771 4.6024000 2
19407 19408 19417 19415 1 180.0000771 15.1670000 2
19407 19408 19417 19418 1 180.0000771 15.1670000 2
19409 19408 19417 19415 1 180.0000771 15.1670000 2
19409 19408 19417 19418 1 180.0000771 15.1670000 2
19410 19409 19408 19417 1 180.0000771 15.1670000 2
19411 19409 19408 19417 1 180.0000771 15.1670000 2
19408 19409 19411 19412 1 180.0000771 15.1670000 2
19408 19409 19411 19413 1 180.0000771 15.1670000 2
19410 19409 19411 19412 1 180.0000771 15.1670000 2
19410 19409 19411 19413 1 180.0000771 15.1670000 2
19409 19411 19413 19414 1 180.0000771 15.1670000 2
19409 19411 19413 19415 1 180.0000771 15.1670000 2
19412 19411 19413 19414 1 180.0000771 15.1670000 2
19412 19411 19413 19415 1 180.0000771 15.1670000 2
19409 19413 19411 19412 4 180.0000771 4.6024000 2
19411 19413 19415 19416 1 180.0000771 15.1670000 2
19411 19413 19415 19417 1 180.0000771 15.1670000 2
19414 19413 19415 19416 1 180.0000771 15.1670000 2
19414 19413 19415 19417 1 180.0000771 15.1670000 2
19411 19415 19413 19414 4 180.0000771 4.6024000 2
19408 19415 19417 19418 4 180.0000771 4.6024000 2
19413 19415 19417 19418 1 180.0000771 15.1670000 2
19416 19415 19417 19418 1 180.0000771 15.1670000 2
19408 19417 19415 19413 1 180.0000771 15.1670000 2
19408 19417 19415 19416 1 180.0000771 15.1670000 2
19413 19417 19415 19416 4 180.0000771 4.6024000 2
19419 19420 19421 19422 1 180.0000771 15.1670000 2
19419 19420 19421 19423 1 180.0000771 15.1670000 2
19422 19420 19421 19423 4 180.0000771 4.6024000 2
19419 19420 19429 19421 4 180.0000771 4.6024000 2
19419 19420 19429 19427 1 180.0000771 15.1670000 2
19419 19420 19429 19430 1 180.0000771 15.1670000 2
19421 19420 19429 19427 1 180.0000771 15.1670000 2
19421 19420 19429 19430 1 180.0000771 15.1670000 2
19422 19421 19420 19429 1 180.0000771 15.1670000 2
19423 19421 19420 19429 1 180.0000771 15.1670000 2
19420 19421 19423 19424 1 180.0000771 15.1670000 2
19420 19421 19423 19425 1 180.0000771 15.1670000 2
19422 19421 19423 19424 1 180.0000771 15.1670000 2
19422 19421 19423 19425 1 180.0000771 15.1670000 2
19421 19423 19425 19426 1 180.0000771 15.1670000 2
19421 19423 19425 19427 1 180.0000771 15.1670000 2
19424 19423 19425 19426 1 180.0000771 15.1670000 2
19424 19423 19425 19427 1 180.0000771 15.1670000 2
19421 19425 19423 19424 4 180.0000771 4.6024000 2
19423 19425 19427 19428 1 180.0000771 15.1670000 2
19423 19425 19427 19429 1 180.0000771 15.1670000 2
19426 19425 19427 19428 1 180.0000771 15.1670000 2
19426 19425 19427 19429 1 180.0000771 15.1670000 2
19423 19427 19425 19426 4 180.0000771 4.6024000 2
19420 19427 19429 19430 4 180.0000771 4.6024000 2
19425 19427 19429 19430 1 180.0000771 15.1670000 2
19428 19427 19429 19430 1 180.0000771 15.1670000 2
19420 19429 19427 19425 1 180.0000771 15.1670000 2
19420 19429 19427 19428 1 180.0000771 15.1670000 2
19425 19429 19427 19428 4 180.0000771 4.6024000 2
19431 19432 19433 19434 1 180.0000771 15.1670000 2
19431 19432 19433 19435 1 180.0000771 15.1670000 2
19434 19432 19433 19435 4 180.0000771 4.6024000 2
19431 19432 19441 19433 4 180.0000771 4.6024000 2
19431 19432 19441 19439 1 180.0000771 15.1670000 2
19431 19432 19441 19442 1 180.0000771 15.1670000 2
19433 19432 19441 19439 1 180.0000771 15.1670000 2
19433 19432 19441 19442 1 180.0000771 15.1670000 2
19434 19433 19432 19441 1 180.0000771 15.1670000 2
19435 19433 19432 19441 1 180.0000771 15.1670000 2
19432 19433 19435 19436 1 180.0000771 15.1670000 2
19432 19433 19435 19437 1 180.0000771 15.1670000 2
19434 19433 19435 19436 1 180.0000771 15.1670000 2
19434 19433 19435 19437 1 180.0000771 15.1670000 2
19433 19435 19437 19438 1 180.0000771 15.1670000 2
19433 19435 19437 19439 1 180.0000771 15.1670000 2
19436 19435 19437 19438 1 180.0000771 15.1670000 2
19436 19435 19437 19439 1 180.0000771 15.1670000 2
19433 19437 19435 19436 4 180.0000771 4.6024000 2
19435 19437 19439 19440 1 180.0000771 15.1670000 2
19435 19437 19439 19441 1 180.0000771 15.1670000 2
19438 19437 19439 19440 1 180.0000771 15.1670000 2
19438 19437 19439 19441 1 180.0000771 15.1670000 2
19435 19439 19437 19438 4 180.0000771 4.6024000 2
19432 19439 19441 19442 4 180.0000771 4.6024000 2
19437 19439 19441 19442 1 180.0000771 15.1670000 2
19440 19439 19441 19442 1 180.0000771 15.1670000 2
19432 19441 19439 19437 1 180.0000771 15.1670000 2
19432 19441 19439 19440 1 180.0000771 15.1670000 2
19437 19441 19439 19440 4 180.0000771 4.6024000 2
19443 19444 19445 19446 1 180.0000771 15.1670000 2
19443 19444 19445 19447 1 180.0000771 15.1670000 2
19446 19444 19445 19447 4 180.0000771 4.6024000 2
19443 19444 19453 19445 4 180.0000771 4.6024000 2
19443 19444 19453 19451 1 180.0000771 15.1670000 2
19443 19444 19453 19454 1 180.0000771 15.1670000 2
19445 19444 19453 19451 1 180.0000771 15.1670000 2
19445 19444 19453 19454 1 180.0000771 15.1670000 2
19446 19445 19444 19453 1 180.0000771 15.1670000 2
19447 19445 19444 19453 1 180.0000771 15.1670000 2
19444 19445 19447 19448 1 180.0000771 15.1670000 2
19444 19445 19447 19449 1 180.0000771 15.1670000 2
19446 19445 19447 19448 1 180.0000771 15.1670000 2
19446 19445 19447 19449 1 180.0000771 15.1670000 2
19445 19447 19449 19450 1 180.0000771 15.1670000 2
19445 19447 19449 19451 1 180.0000771 15.1670000 2
19448 19447 19449 19450 1 180.0000771 15.1670000 2
19448 19447 19449 19451 1 180.0000771 15.1670000 2
19445 19449 19447 19448 4 180.0000771 4.6024000 2
19447 19449 19451 19452 1 180.0000771 15.1670000 2
19447 19449 19451 19453 1 180.0000771 15.1670000 2
19450 19449 19451 19452 1 180.0000771 15.1670000 2
19450 19449 19451 19453 1 180.0000771 15.1670000 2
19447 19451 19449 19450 4 180.0000771 4.6024000 2
19444 19451 19453 19454 4 180.0000771 4.6024000 2
19449 19451 19453 19454 1 180.0000771 15.1670000 2
19452 19451 19453 19454 1 180.0000771 15.1670000 2
19444 19453 19451 19449 1 180.0000771 15.1670000 2
19444 19453 19451 19452 1 180.0000771 15.1670000 2
19449 19453 19451 19452 4 180.0000771 4.6024000 2
19455 19456 19457 19458 1 180.0000771 15.1670000 2
19455 19456 19457 19459 1 180.0000771 15.1670000 2
19458 19456 19457 19459 4 180.0000771 4.6024000 2
19455 19456 19465 19457 4 180.0000771 4.6024000 2
19455 19456 19465 19463 1 180.0000771 15.1670000 2
19455 19456 19465 19466 1 180.0000771 15.1670000 2
19457 19456 19465 19463 1 180.0000771 15.1670000 2
19457 19456 19465 19466 1 180.0000771 15.1670000 2
19458 19457 19456 19465 1 180.0000771 15.1670000 2
19459 19457 19456 19465 1 180.0000771 15.1670000 2
19456 19457 19459 19460 1 180.0000771 15.1670000 2
19456 19457 19459 19461 1 180.0000771 15.1670000 2
19458 19457 19459 19460 1 180.0000771 15.1670000 2
19458 19457 19459 19461 1 180.0000771 15.1670000 2
19457 19459 19461 19462 1 180.0000771 15.1670000 2
19457 19459 19461 19463 1 180.0000771 15.1670000 2
19460 19459 19461 19462 1 180.0000771 15.1670000 2
19460 19459 19461 19463 1 180.0000771 15.1670000 2
19457 19461 19459 19460 4 180.0000771 4.6024000 2
19459 19461 19463 19464 1 180.0000771 15.1670000 2
19459 19461 19463 19465 1 180.0000771 15.1670000 2
19462 19461 19463 19464 1 180.0000771 15.1670000 2
19462 19461 19463 19465 1 180.0000771 15.1670000 2
19459 19463 19461 19462 4 180.0000771 4.6024000 2
19456 19463 19465 19466 4 180.0000771 4.6024000 2
19461 19463 19465 19466 1 180.0000771 15.1670000 2
19464 19463 19465 19466 1 180.0000771 15.1670000 2
19456 19465 19463 19461 1 180.0000771 15.1670000 2
19456 19465 19463 19464 1 180.0000771 15.1670000 2
19461 19465 19463 19464 4 180.0000771 4.6024000 2
19467 19468 19469 19470 1 180.0000771 15.1670000 2
19467 19468 19469 19471 1 180.0000771 15.1670000 2
19470 19468 19469 19471 4 180.0000771 4.6024000 2
19467 19468 19477 19469 4 180.0000771 4.6024000 2
19467 19468 19477 19475 1 180.0000771 15.1670000 2
19467 19468 19477 19478 1 180.0000771 15.1670000 2
19469 19468 19477 19475 1 180.0000771 15.1670000 2
19469 19468 19477 19478 1 180.0000771 15.1670000 2
19470 19469 19468 19477 1 180.0000771 15.1670000 2
19471 19469 19468 19477 1 180.0000771 15.1670000 2
19468 19469 19471 19472 1 180.0000771 15.1670000 2
19468 19469 19471 19473 1 180.0000771 15.1670000 2
19470 19469 19471 19472 1 180.0000771 15.1670000 2
19470 19469 19471 19473 1 180.0000771 15.1670000 2
19469 19471 19473 19474 1 180.0000771 15.1670000 2
19469 19471 19473 19475 1 180.0000771 15.1670000 2
19472 19471 19473 19474 1 180.0000771 15.1670000 2
19472 19471 19473 19475 1 180.0000771 15.1670000 2
19469 19473 19471 19472 4 180.0000771 4.6024000 2
19471 19473 19475 19476 1 180.0000771 15.1670000 2
19471 19473 19475 19477 1 180.0000771 15.1670000 2
19474 19473 19475 19476 1 180.0000771 15.1670000 2
19474 19473 19475 19477 1 180.0000771 15.1670000 2
19471 19475 19473 19474 4 180.0000771 4.6024000 2
19468 19475 19477 19478 4 180.0000771 4.6024000 2
19473 19475 19477 19478 1 180.0000771 15.1670000 2
19476 19475 19477 19478 1 180.0000771 15.1670000 2
19468 19477 19475 19473 1 180.0000771 15.1670000 2
19468 19477 19475 19476 1 180.0000771 15.1670000 2
19473 19477 19475 19476 4 180.0000771 4.6024000 2
19479 19480 19481 19482 1 180.0000771 15.1670000 2
19479 19480 19481 19483 1 180.0000771 15.1670000 2
19482 19480 19481 19483 4 180.0000771 4.6024000 2
19479 19480 19489 19481 4 180.0000771 4.6024000 2
19479 19480 19489 19487 1 180.0000771 15.1670000 2
19479 19480 19489 19490 1 180.0000771 15.1670000 2
19481 19480 19489 19487 1 180.0000771 15.1670000 2
19481 19480 19489 19490 1 180.0000771 15.1670000 2
19482 19481 19480 19489 1 180.0000771 15.1670000 2
19483 19481 19480 19489 1 180.0000771 15.1670000 2
19480 19481 19483 19484 1 180.0000771 15.1670000 2
19480 19481 19483 19485 1 180.0000771 15.1670000 2
19482 19481 19483 19484 1 180.0000771 15.1670000 2
19482 19481 19483 19485 1 180.0000771 15.1670000 2
19481 19483 19485 19486 1 180.0000771 15.1670000 2
19481 19483 19485 19487 1 180.0000771 15.1670000 2
19484 19483 19485 19486 1 180.0000771 15.1670000 2
19484 19483 19485 19487 1 180.0000771 15.1670000 2
19481 19485 19483 19484 4 180.0000771 4.6024000 2
19483 19485 19487 19488 1 180.0000771 15.1670000 2
19483 19485 19487 19489 1 180.0000771 15.1670000 2
19486 19485 19487 19488 1 180.0000771 15.1670000 2
19486 19485 19487 19489 1 180.0000771 15.1670000 2
19483 19487 19485 19486 4 180.0000771 4.6024000 2
19480 19487 19489 19490 4 180.0000771 4.6024000 2
19485 19487 19489 19490 1 180.0000771 15.1670000 2
19488 19487 19489 19490 1 180.0000771 15.1670000 2
19480 19489 19487 19485 1 180.0000771 15.1670000 2
19480 19489 19487 19488 1 180.0000771 15.1670000 2
19485 19489 19487 19488 4 180.0000771 4.6024000 2
19491 19492 19493 19494 1 180.0000771 15.1670000 2
19491 19492 19493 19495 1 180.0000771 15.1670000 2
19494 19492 19493 19495 4 180.0000771 4.6024000 2
19491 19492 19501 19493 4 180.0000771 4.6024000 2
19491 19492 19501 19499 1 180.0000771 15.1670000 2
19491 19492 19501 19502 1 180.0000771 15.1670000 2
19493 19492 19501 19499 1 180.0000771 15.1670000 2
19493 19492 19501 19502 1 180.0000771 15.1670000 2
19494 19493 19492 19501 1 180.0000771 15.1670000 2
19495 19493 19492 19501 1 180.0000771 15.1670000 2
19492 19493 19495 19496 1 180.0000771 15.1670000 2
19492 19493 19495 19497 1 180.0000771 15.1670000 2
19494 19493 19495 19496 1 180.0000771 15.1670000 2
19494 19493 19495 19497 1 180.0000771 15.1670000 2
19493 19495 19497 19498 1 180.0000771 15.1670000 2
19493 19495 19497 19499 1 180.0000771 15.1670000 2
19496 19495 19497 19498 1 180.0000771 15.1670000 2
19496 19495 19497 19499 1 180.0000771 15.1670000 2
19493 19497 19495 19496 4 180.0000771 4.6024000 2
19495 19497 19499 19500 1 180.0000771 15.1670000 2
19495 19497 19499 19501 1 180.0000771 15.1670000 2
19498 19497 19499 19500 1 180.0000771 15.1670000 2
19498 19497 19499 19501 1 180.0000771 15.1670000 2
19495 19499 19497 19498 4 180.0000771 4.6024000 2
19492 19499 19501 19502 4 180.0000771 4.6024000 2
19497 19499 19501 19502 1 180.0000771 15.1670000 2
19500 19499 19501 19502 1 180.0000771 15.1670000 2
19492 19501 19499 19497 1 180.0000771 15.1670000 2
19492 19501 19499 19500 1 180.0000771 15.1670000 2
19497 19501 19499 19500 4 180.0000771 4.6024000 2
19503 19504 19505 19506 1 180.0000771 15.1670000 2
19503 19504 19505 19507 1 180.0000771 15.1670000 2
19506 19504 19505 19507 4 180.0000771 4.6024000 2
19503 19504 19513 19505 4 180.0000771 4.6024000 2
19503 19504 19513 19511 1 180.0000771 15.1670000 2
19503 19504 19513 19514 1 180.0000771 15.1670000 2
19505 19504 19513 19511 1 180.0000771 15.1670000 2
19505 19504 19513 19514 1 180.0000771 15.1670000 2
19506 19505 19504 19513 1 180.0000771 15.1670000 2
19507 19505 19504 19513 1 180.0000771 15.1670000 2
19504 19505 19507 19508 1 180.0000771 15.1670000 2
19504 19505 19507 19509 1 180.0000771 15.1670000 2
19506 19505 19507 19508 1 180.0000771 15.1670000 2
19506 19505 19507 19509 1 180.0000771 15.1670000 2
19505 19507 19509 19510 1 180.0000771 15.1670000 2
19505 19507 19509 19511 1 180.0000771 15.1670000 2
19508 19507 19509 19510 1 180.0000771 15.1670000 2
19508 19507 19509 19511 1 180.0000771 15.1670000 2
19505 19509 19507 19508 4 180.0000771 4.6024000 2
19507 19509 19511 19512 1 180.0000771 15.1670000 2
19507 19509 19511 19513 1 180.0000771 15.1670000 2
19510 19509 19511 19512 1 180.0000771 15.1670000 2
19510 19509 19511 19513 1 180.0000771 15.1670000 2
19507 19511 19509 19510 4 180.0000771 4.6024000 2
19504 19511 19513 19514 4 180.0000771 4.6024000 2
19509 19511 19513 19514 1 180.0000771 15.1670000 2
19512 19511 19513 19514 1 180.0000771 15.1670000 2
19504 19513 19511 19509 1 180.0000771 15.1670000 2
19504 19513 19511 19512 1 180.0000771 15.1670000 2
19509 19513 19511 19512 4 180.0000771 4.6024000 2
19515 19516 19517 19518 1 180.0000771 15.1670000 2
19515 19516 19517 19519 1 180.0000771 15.1670000 2
19518 19516 19517 19519 4 180.0000771 4.6024000 2
19515 19516 19525 19517 4 180.0000771 4.6024000 2
19515 19516 19525 19523 1 180.0000771 15.1670000 2
19515 19516 19525 19526 1 180.0000771 15.1670000 2
19517 19516 19525 19523 1 180.0000771 15.1670000 2
19517 19516 19525 19526 1 180.0000771 15.1670000 2
19518 19517 19516 19525 1 180.0000771 15.1670000 2
19519 19517 19516 19525 1 180.0000771 15.1670000 2
19516 19517 19519 19520 1 180.0000771 15.1670000 2
19516 19517 19519 19521 1 180.0000771 15.1670000 2
19518 19517 19519 19520 1 180.0000771 15.1670000 2
19518 19517 19519 19521 1 180.0000771 15.1670000 2
19517 19519 19521 19522 1 180.0000771 15.1670000 2
19517 19519 19521 19523 1 180.0000771 15.1670000 2
19520 19519 19521 19522 1 180.0000771 15.1670000 2
19520 19519 19521 19523 1 180.0000771 15.1670000 2
19517 19521 19519 19520 4 180.0000771 4.6024000 2
19519 19521 19523 19524 1 180.0000771 15.1670000 2
19519 19521 19523 19525 1 180.0000771 15.1670000 2
19522 19521 19523 19524 1 180.0000771 15.1670000 2
19522 19521 19523 19525 1 180.0000771 15.1670000 2
19519 19523 19521 19522 4 180.0000771 4.6024000 2
19516 19523 19525 19526 4 180.0000771 4.6024000 2
19521 19523 19525 19526 1 180.0000771 15.1670000 2
19524 19523 19525 19526 1 180.0000771 15.1670000 2
19516 19525 19523 19521 1 180.0000771 15.1670000 2
19516 19525 19523 19524 1 180.0000771 15.1670000 2
19521 19525 19523 19524 4 180.0000771 4.6024000 2
19527 19528 19529 19530 1 180.0000771 15.1670000 2
19527 19528 19529 19531 1 180.0000771 15.1670000 2
19530 19528 19529 19531 4 180.0000771 4.6024000 2
19527 19528 19537 19529 4 180.0000771 4.6024000 2
19527 19528 19537 19535 1 180.0000771 15.1670000 2
19527 19528 19537 19538 1 180.0000771 15.1670000 2
19529 19528 19537 19535 1 180.0000771 15.1670000 2
19529 19528 19537 19538 1 180.0000771 15.1670000 2
19530 19529 19528 19537 1 180.0000771 15.1670000 2
19531 19529 19528 19537 1 180.0000771 15.1670000 2
19528 19529 19531 19532 1 180.0000771 15.1670000 2
19528 19529 19531 19533 1 180.0000771 15.1670000 2
19530 19529 19531 19532 1 180.0000771 15.1670000 2
19530 19529 19531 19533 1 180.0000771 15.1670000 2
19529 19531 19533 19534 1 180.0000771 15.1670000 2
19529 19531 19533 19535 1 180.0000771 15.1670000 2
19532 19531 19533 19534 1 180.0000771 15.1670000 2
19532 19531 19533 19535 1 180.0000771 15.1670000 2
19529 19533 19531 19532 4 180.0000771 4.6024000 2
19531 19533 19535 19536 1 180.0000771 15.1670000 2
19531 19533 19535 19537 1 180.0000771 15.1670000 2
19534 19533 19535 19536 1 180.0000771 15.1670000 2
19534 19533 19535 19537 1 180.0000771 15.1670000 2
19531 19535 19533 19534 4 180.0000771 4.6024000 2
19528 19535 19537 19538 4 180.0000771 4.6024000 2
19533 19535 19537 19538 1 180.0000771 15.1670000 2
19536 19535 19537 19538 1 180.0000771 15.1670000 2
19528 19537 19535 19533 1 180.0000771 15.1670000 2
19528 19537 19535 19536 1 180.0000771 15.1670000 2
19533 19537 19535 19536 4 180.0000771 4.6024000 2
19539 19540 19541 19542 1 180.0000771 15.1670000 2
19539 19540 19541 19543 1 180.0000771 15.1670000 2
19542 19540 19541 19543 4 180.0000771 4.6024000 2
19539 19540 19549 19541 4 180.0000771 4.6024000 2
19539 19540 19549 19547 1 180.0000771 15.1670000 2
19539 19540 19549 19550 1 180.0000771 15.1670000 2
19541 19540 19549 19547 1 180.0000771 15.1670000 2
19541 19540 19549 19550 1 180.0000771 15.1670000 2
19542 19541 19540 19549 1 180.0000771 15.1670000 2
19543 19541 19540 19549 1 180.0000771 15.1670000 2
19540 19541 19543 19544 1 180.0000771 15.1670000 2
19540 19541 19543 19545 1 180.0000771 15.1670000 2
19542 19541 19543 19544 1 180.0000771 15.1670000 2
19542 19541 19543 19545 1 180.0000771 15.1670000 2
19541 19543 19545 19546 1 180.0000771 15.1670000 2
19541 19543 19545 19547 1 180.0000771 15.1670000 2
19544 19543 19545 19546 1 180.0000771 15.1670000 2
19544 19543 19545 19547 1 180.0000771 15.1670000 2
19541 19545 19543 19544 4 180.0000771 4.6024000 2
19543 19545 19547 19548 1 180.0000771 15.1670000 2
19543 19545 19547 19549 1 180.0000771 15.1670000 2
19546 19545 19547 19548 1 180.0000771 15.1670000 2
19546 19545 19547 19549 1 180.0000771 15.1670000 2
19543 19547 19545 19546 4 180.0000771 4.6024000 2
19540 19547 19549 19550 4 180.0000771 4.6024000 2
19545 19547 19549 19550 1 180.0000771 15.1670000 2
19548 19547 19549 19550 1 180.0000771 15.1670000 2
19540 19549 19547 19545 1 180.0000771 15.1670000 2
19540 19549 19547 19548 1 180.0000771 15.1670000 2
19545 19549 19547 19548 4 180.0000771 4.6024000 2
19551 19552 19553 19554 1 180.0000771 15.1670000 2
19551 19552 19553 19555 1 180.0000771 15.1670000 2
19554 19552 19553 19555 4 180.0000771 4.6024000 2
19551 19552 19561 19553 4 180.0000771 4.6024000 2
19551 19552 19561 19559 1 180.0000771 15.1670000 2
19551 19552 19561 19562 1 180.0000771 15.1670000 2
19553 19552 19561 19559 1 180.0000771 15.1670000 2
19553 19552 19561 19562 1 180.0000771 15.1670000 2
19554 19553 19552 19561 1 180.0000771 15.1670000 2
19555 19553 19552 19561 1 180.0000771 15.1670000 2
19552 19553 19555 19556 1 180.0000771 15.1670000 2
19552 19553 19555 19557 1 180.0000771 15.1670000 2
19554 19553 19555 19556 1 180.0000771 15.1670000 2
19554 19553 19555 19557 1 180.0000771 15.1670000 2
19553 19555 19557 19558 1 180.0000771 15.1670000 2
19553 19555 19557 19559 1 180.0000771 15.1670000 2
19556 19555 19557 19558 1 180.0000771 15.1670000 2
19556 19555 19557 19559 1 180.0000771 15.1670000 2
19553 19557 19555 19556 4 180.0000771 4.6024000 2
19555 19557 19559 19560 1 180.0000771 15.1670000 2
19555 19557 19559 19561 1 180.0000771 15.1670000 2
19558 19557 19559 19560 1 180.0000771 15.1670000 2
19558 19557 19559 19561 1 180.0000771 15.1670000 2
19555 19559 19557 19558 4 180.0000771 4.6024000 2
19552 19559 19561 19562 4 180.0000771 4.6024000 2
19557 19559 19561 19562 1 180.0000771 15.1670000 2
19560 19559 19561 19562 1 180.0000771 15.1670000 2
19552 19561 19559 19557 1 180.0000771 15.1670000 2
19552 19561 19559 19560 1 180.0000771 15.1670000 2
19557 19561 19559 19560 4 180.0000771 4.6024000 2
19563 19564 19565 19566 1 180.0000771 15.1670000 2
19563 19564 19565 19567 1 180.0000771 15.1670000 2
19566 19564 19565 19567 4 180.0000771 4.6024000 2
19563 19564 19573 19565 4 180.0000771 4.6024000 2
19563 19564 19573 19571 1 180.0000771 15.1670000 2
19563 19564 19573 19574 1 180.0000771 15.1670000 2
19565 19564 19573 19571 1 180.0000771 15.1670000 2
19565 19564 19573 19574 1 180.0000771 15.1670000 2
19566 19565 19564 19573 1 180.0000771 15.1670000 2
19567 19565 19564 19573 1 180.0000771 15.1670000 2
19564 19565 19567 19568 1 180.0000771 15.1670000 2
19564 19565 19567 19569 1 180.0000771 15.1670000 2
19566 19565 19567 19568 1 180.0000771 15.1670000 2
19566 19565 19567 19569 1 180.0000771 15.1670000 2
19565 19567 19569 19570 1 180.0000771 15.1670000 2
19565 19567 19569 19571 1 180.0000771 15.1670000 2
19568 19567 19569 19570 1 180.0000771 15.1670000 2
19568 19567 19569 19571 1 180.0000771 15.1670000 2
19565 19569 19567 19568 4 180.0000771 4.6024000 2
19567 19569 19571 19572 1 180.0000771 15.1670000 2
19567 19569 19571 19573 1 180.0000771 15.1670000 2
19570 19569 19571 19572 1 180.0000771 15.1670000 2
19570 19569 19571 19573 1 180.0000771 15.1670000 2
19567 19571 19569 19570 4 180.0000771 4.6024000 2
19564 19571 19573 19574 4 180.0000771 4.6024000 2
19569 19571 19573 19574 1 180.0000771 15.1670000 2
19572 19571 19573 19574 1 180.0000771 15.1670000 2
19564 19573 19571 19569 1 180.0000771 15.1670000 2
19564 19573 19571 19572 1 180.0000771 15.1670000 2
19569 19573 19571 19572 4 180.0000771 4.6024000 2
19575 19576 19577 19578 1 180.0000771 15.1670000 2
19575 19576 19577 19579 1 180.0000771 15.1670000 2
19578 19576 19577 19579 4 180.0000771 4.6024000 2
19575 19576 19585 19577 4 180.0000771 4.6024000 2
19575 19576 19585 19583 1 180.0000771 15.1670000 2
19575 19576 19585 19586 1 180.0000771 15.1670000 2
19577 19576 19585 19583 1 180.0000771 15.1670000 2
19577 19576 19585 19586 1 180.0000771 15.1670000 2
19578 19577 19576 19585 1 180.0000771 15.1670000 2
19579 19577 19576 19585 1 180.0000771 15.1670000 2
19576 19577 19579 19580 1 180.0000771 15.1670000 2
19576 19577 19579 19581 1 180.0000771 15.1670000 2
19578 19577 19579 19580 1 180.0000771 15.1670000 2
19578 19577 19579 19581 1 180.0000771 15.1670000 2
19577 19579 19581 19582 1 180.0000771 15.1670000 2
19577 19579 19581 19583 1 180.0000771 15.1670000 2
19580 19579 19581 19582 1 180.0000771 15.1670000 2
19580 19579 19581 19583 1 180.0000771 15.1670000 2
19577 19581 19579 19580 4 180.0000771 4.6024000 2
19579 19581 19583 19584 1 180.0000771 15.1670000 2
19579 19581 19583 19585 1 180.0000771 15.1670000 2
19582 19581 19583 19584 1 180.0000771 15.1670000 2
19582 19581 19583 19585 1 180.0000771 15.1670000 2
19579 19583 19581 19582 4 180.0000771 4.6024000 2
19576 19583 19585 19586 4 180.0000771 4.6024000 2
19581 19583 19585 19586 1 180.0000771 15.1670000 2
19584 19583 19585 19586 1 180.0000771 15.1670000 2
19576 19585 19583 19581 1 180.0000771 15.1670000 2
19576 19585 19583 19584 1 180.0000771 15.1670000 2
19581 19585 19583 19584 4 180.0000771 4.6024000 2
19587 19588 19589 19590 1 180.0000771 15.1670000 2
19587 19588 19589 19591 1 180.0000771 15.1670000 2
19590 19588 19589 19591 4 180.0000771 4.6024000 2
19587 19588 19597 19589 4 180.0000771 4.6024000 2
19587 19588 19597 19595 1 180.0000771 15.1670000 2
19587 19588 19597 19598 1 180.0000771 15.1670000 2
19589 19588 19597 19595 1 180.0000771 15.1670000 2
19589 19588 19597 19598 1 180.0000771 15.1670000 2
19590 19589 19588 19597 1 180.0000771 15.1670000 2
19591 19589 19588 19597 1 180.0000771 15.1670000 2
19588 19589 19591 19592 1 180.0000771 15.1670000 2
19588 19589 19591 19593 1 180.0000771 15.1670000 2
19590 19589 19591 19592 1 180.0000771 15.1670000 2
19590 19589 19591 19593 1 180.0000771 15.1670000 2
19589 19591 19593 19594 1 180.0000771 15.1670000 2
19589 19591 19593 19595 1 180.0000771 15.1670000 2
19592 19591 19593 19594 1 180.0000771 15.1670000 2
19592 19591 19593 19595 1 180.0000771 15.1670000 2
19589 19593 19591 19592 4 180.0000771 4.6024000 2
19591 19593 19595 19596 1 180.0000771 15.1670000 2
19591 19593 19595 19597 1 180.0000771 15.1670000 2
19594 19593 19595 19596 1 180.0000771 15.1670000 2
19594 19593 19595 19597 1 180.0000771 15.1670000 2
19591 19595 19593 19594 4 180.0000771 4.6024000 2
19588 19595 19597 19598 4 180.0000771 4.6024000 2
19593 19595 19597 19598 1 180.0000771 15.1670000 2
19596 19595 19597 19598 1 180.0000771 15.1670000 2
19588 19597 19595 19593 1 180.0000771 15.1670000 2
19588 19597 19595 19596 1 180.0000771 15.1670000 2
19593 19597 19595 19596 4 180.0000771 4.6024000 2
19599 19600 19601 19602 1 180.0000771 15.1670000 2
19599 19600 19601 19603 1 180.0000771 15.1670000 2
19602 19600 19601 19603 4 180.0000771 4.6024000 2
19599 19600 19609 19601 4 180.0000771 4.6024000 2
19599 19600 19609 19607 1 180.0000771 15.1670000 2
19599 19600 19609 19610 1 180.0000771 15.1670000 2
19601 19600 19609 19607 1 180.0000771 15.1670000 2
19601 19600 19609 19610 1 180.0000771 15.1670000 2
19602 19601 19600 19609 1 180.0000771 15.1670000 2
19603 19601 19600 19609 1 180.0000771 15.1670000 2
19600 19601 19603 19604 1 180.0000771 15.1670000 2
19600 19601 19603 19605 1 180.0000771 15.1670000 2
19602 19601 19603 19604 1 180.0000771 15.1670000 2
19602 19601 19603 19605 1 180.0000771 15.1670000 2
19601 19603 19605 19606 1 180.0000771 15.1670000 2
19601 19603 19605 19607 1 180.0000771 15.1670000 2
19604 19603 19605 19606 1 180.0000771 15.1670000 2
19604 19603 19605 19607 1 180.0000771 15.1670000 2
19601 19605 19603 19604 4 180.0000771 4.6024000 2
19603 19605 19607 19608 1 180.0000771 15.1670000 2
19603 19605 19607 19609 1 180.0000771 15.1670000 2
19606 19605 19607 19608 1 180.0000771 15.1670000 2
19606 19605 19607 19609 1 180.0000771 15.1670000 2
19603 19607 19605 19606 4 180.0000771 4.6024000 2
19600 19607 19609 19610 4 180.0000771 4.6024000 2
19605 19607 19609 19610 1 180.0000771 15.1670000 2
19608 19607 19609 19610 1 180.0000771 15.1670000 2
19600 19609 19607 19605 1 180.0000771 15.1670000 2
19600 19609 19607 19608 1 180.0000771 15.1670000 2
19605 19609 19607 19608 4 180.0000771 4.6024000 2
19611 19612 19613 19614 1 180.0000771 15.1670000 2
19611 19612 19613 19615 1 180.0000771 15.1670000 2
19614 19612 19613 19615 4 180.0000771 4.6024000 2
19611 19612 19621 19613 4 180.0000771 4.6024000 2
19611 19612 19621 19619 1 180.0000771 15.1670000 2
19611 19612 19621 19622 1 180.0000771 15.1670000 2
19613 19612 19621 19619 1 180.0000771 15.1670000 2
19613 19612 19621 19622 1 180.0000771 15.1670000 2
19614 19613 19612 19621 1 180.0000771 15.1670000 2
19615 19613 19612 19621 1 180.0000771 15.1670000 2
19612 19613 19615 19616 1 180.0000771 15.1670000 2
19612 19613 19615 19617 1 180.0000771 15.1670000 2
19614 19613 19615 19616 1 180.0000771 15.1670000 2
19614 19613 19615 19617 1 180.0000771 15.1670000 2
19613 19615 19617 19618 1 180.0000771 15.1670000 2
19613 19615 19617 19619 1 180.0000771 15.1670000 2
19616 19615 19617 19618 1 180.0000771 15.1670000 2
19616 19615 19617 19619 1 180.0000771 15.1670000 2
19613 19617 19615 19616 4 180.0000771 4.6024000 2
19615 19617 19619 19620 1 180.0000771 15.1670000 2
19615 19617 19619 19621 1 180.0000771 15.1670000 2
19618 19617 19619 19620 1 180.0000771 15.1670000 2
19618 19617 19619 19621 1 180.0000771 15.1670000 2
19615 19619 19617 19618 4 180.0000771 4.6024000 2
19612 19619 19621 19622 4 180.0000771 4.6024000 2
19617 19619 19621 19622 1 180.0000771 15.1670000 2
19620 19619 19621 19622 1 180.0000771 15.1670000 2
19612 19621 19619 19617 1 180.0000771 15.1670000 2
19612 19621 19619 19620 1 180.0000771 15.1670000 2
19617 19621 19619 19620 4 180.0000771 4.6024000 2
19623 19624 19625 19626 1 180.0000771 15.1670000 2
19623 19624 19625 19627 1 180.0000771 15.1670000 2
19626 19624 19625 19627 4 180.0000771 4.6024000 2
19623 19624 19633 19625 4 180.0000771 4.6024000 2
19623 19624 19633 19631 1 180.0000771 15.1670000 2
19623 19624 19633 19634 1 180.0000771 15.1670000 2
19625 19624 19633 19631 1 180.0000771 15.1670000 2
19625 19624 19633 19634 1 180.0000771 15.1670000 2
19626 19625 19624 19633 1 180.0000771 15.1670000 2
19627 19625 19624 19633 1 180.0000771 15.1670000 2
19624 19625 19627 19628 1 180.0000771 15.1670000 2
19624 19625 19627 19629 1 180.0000771 15.1670000 2
19626 19625 19627 19628 1 180.0000771 15.1670000 2
19626 19625 19627 19629 1 180.0000771 15.1670000 2
19625 19627 19629 19630 1 180.0000771 15.1670000 2
19625 19627 19629 19631 1 180.0000771 15.1670000 2
19628 19627 19629 19630 1 180.0000771 15.1670000 2
19628 19627 19629 19631 1 180.0000771 15.1670000 2
19625 19629 19627 19628 4 180.0000771 4.6024000 2
19627 19629 19631 19632 1 180.0000771 15.1670000 2
19627 19629 19631 19633 1 180.0000771 15.1670000 2
19630 19629 19631 19632 1 180.0000771 15.1670000 2
19630 19629 19631 19633 1 180.0000771 15.1670000 2
19627 19631 19629 19630 4 180.0000771 4.6024000 2
19624 19631 19633 19634 4 180.0000771 4.6024000 2
19629 19631 19633 19634 1 180.0000771 15.1670000 2
19632 19631 19633 19634 1 180.0000771 15.1670000 2
19624 19633 19631 19629 1 180.0000771 15.1670000 2
19624 19633 19631 19632 1 180.0000771 15.1670000 2
19629 19633 19631 19632 4 180.0000771 4.6024000 2
19635 19636 19637 19638 1 180.0000771 15.1670000 2
19635 19636 19637 19639 1 180.0000771 15.1670000 2
19638 19636 19637 19639 4 180.0000771 4.6024000 2
19635 19636 19645 19637 4 180.0000771 4.6024000 2
19635 19636 19645 19643 1 180.0000771 15.1670000 2
19635 19636 19645 19646 1 180.0000771 15.1670000 2
19637 19636 19645 19643 1 180.0000771 15.1670000 2
19637 19636 19645 19646 1 180.0000771 15.1670000 2
19638 19637 19636 19645 1 180.0000771 15.1670000 2
19639 19637 19636 19645 1 180.0000771 15.1670000 2
19636 19637 19639 19640 1 180.0000771 15.1670000 2
19636 19637 19639 19641 1 180.0000771 15.1670000 2
19638 19637 19639 19640 1 180.0000771 15.1670000 2
19638 19637 19639 19641 1 180.0000771 15.1670000 2
19637 19639 19641 19642 1 180.0000771 15.1670000 2
19637 19639 19641 19643 1 180.0000771 15.1670000 2
19640 19639 19641 19642 1 180.0000771 15.1670000 2
19640 19639 19641 19643 1 180.0000771 15.1670000 2
19637 19641 19639 19640 4 180.0000771 4.6024000 2
19639 19641 19643 19644 1 180.0000771 15.1670000 2
19639 19641 19643 19645 1 180.0000771 15.1670000 2
19642 19641 19643 19644 1 180.0000771 15.1670000 2
19642 19641 19643 19645 1 180.0000771 15.1670000 2
19639 19643 19641 19642 4 180.0000771 4.6024000 2
19636 19643 19645 19646 4 180.0000771 4.6024000 2
19641 19643 19645 19646 1 180.0000771 15.1670000 2
19644 19643 19645 19646 1 180.0000771 15.1670000 2
19636 19645 19643 19641 1 180.0000771 15.1670000 2
19636 19645 19643 19644 1 180.0000771 15.1670000 2
19641 19645 19643 19644 4 180.0000771 4.6024000 2
19647 19648 19649 19650 1 180.0000771 15.1670000 2
19647 19648 19649 19651 1 180.0000771 15.1670000 2
19650 19648 19649 19651 4 180.0000771 4.6024000 2
19647 19648 19657 19649 4 180.0000771 4.6024000 2
19647 19648 19657 19655 1 180.0000771 15.1670000 2
19647 19648 19657 19658 1 180.0000771 15.1670000 2
19649 19648 19657 19655 1 180.0000771 15.1670000 2
19649 19648 19657 19658 1 180.0000771 15.1670000 2
19650 19649 19648 19657 1 180.0000771 15.1670000 2
19651 19649 19648 19657 1 180.0000771 15.1670000 2
19648 19649 19651 19652 1 180.0000771 15.1670000 2
19648 19649 19651 19653 1 180.0000771 15.1670000 2
19650 19649 19651 19652 1 180.0000771 15.1670000 2
19650 19649 19651 19653 1 180.0000771 15.1670000 2
19649 19651 19653 19654 1 180.0000771 15.1670000 2
19649 19651 19653 19655 1 180.0000771 15.1670000 2
19652 19651 19653 19654 1 180.0000771 15.1670000 2
19652 19651 19653 19655 1 180.0000771 15.1670000 2
19649 19653 19651 19652 4 180.0000771 4.6024000 2
19651 19653 19655 19656 1 180.0000771 15.1670000 2
19651 19653 19655 19657 1 180.0000771 15.1670000 2
19654 19653 19655 19656 1 180.0000771 15.1670000 2
19654 19653 19655 19657 1 180.0000771 15.1670000 2
19651 19655 19653 19654 4 180.0000771 4.6024000 2
19648 19655 19657 19658 4 180.0000771 4.6024000 2
19653 19655 19657 19658 1 180.0000771 15.1670000 2
19656 19655 19657 19658 1 180.0000771 15.1670000 2
19648 19657 19655 19653 1 180.0000771 15.1670000 2
19648 19657 19655 19656 1 180.0000771 15.1670000 2
19653 19657 19655 19656 4 180.0000771 4.6024000 2
19659 19660 19661 19662 1 180.0000771 15.1670000 2
19659 19660 19661 19663 1 180.0000771 15.1670000 2
19662 19660 19661 19663 4 180.0000771 4.6024000 2
19659 19660 19669 19661 4 180.0000771 4.6024000 2
19659 19660 19669 19667 1 180.0000771 15.1670000 2
19659 19660 19669 19670 1 180.0000771 15.1670000 2
19661 19660 19669 19667 1 180.0000771 15.1670000 2
19661 19660 19669 19670 1 180.0000771 15.1670000 2
19662 19661 19660 19669 1 180.0000771 15.1670000 2
19663 19661 19660 19669 1 180.0000771 15.1670000 2
19660 19661 19663 19664 1 180.0000771 15.1670000 2
19660 19661 19663 19665 1 180.0000771 15.1670000 2
19662 19661 19663 19664 1 180.0000771 15.1670000 2
19662 19661 19663 19665 1 180.0000771 15.1670000 2
19661 19663 19665 19666 1 180.0000771 15.1670000 2
19661 19663 19665 19667 1 180.0000771 15.1670000 2
19664 19663 19665 19666 1 180.0000771 15.1670000 2
19664 19663 19665 19667 1 180.0000771 15.1670000 2
19661 19665 19663 19664 4 180.0000771 4.6024000 2
19663 19665 19667 19668 1 180.0000771 15.1670000 2
19663 19665 19667 19669 1 180.0000771 15.1670000 2
19666 19665 19667 19668 1 180.0000771 15.1670000 2
19666 19665 19667 19669 1 180.0000771 15.1670000 2
19663 19667 19665 19666 4 180.0000771 4.6024000 2
19660 19667 19669 19670 4 180.0000771 4.6024000 2
19665 19667 19669 19670 1 180.0000771 15.1670000 2
19668 19667 19669 19670 1 180.0000771 15.1670000 2
19660 19669 19667 19665 1 180.0000771 15.1670000 2
19660 19669 19667 19668 1 180.0000771 15.1670000 2
19665 19669 19667 19668 4 180.0000771 4.6024000 2
19671 19672 19673 19674 1 180.0000771 15.1670000 2
19671 19672 19673 19675 1 180.0000771 15.1670000 2
19674 19672 19673 19675 4 180.0000771 4.6024000 2
19671 19672 19681 19673 4 180.0000771 4.6024000 2
19671 19672 19681 19679 1 180.0000771 15.1670000 2
19671 19672 19681 19682 1 180.0000771 15.1670000 2
19673 19672 19681 19679 1 180.0000771 15.1670000 2
19673 19672 19681 19682 1 180.0000771 15.1670000 2
19674 19673 19672 19681 1 180.0000771 15.1670000 2
19675 19673 19672 19681 1 180.0000771 15.1670000 2
19672 19673 19675 19676 1 180.0000771 15.1670000 2
19672 19673 19675 19677 1 180.0000771 15.1670000 2
19674 19673 19675 19676 1 180.0000771 15.1670000 2
19674 19673 19675 19677 1 180.0000771 15.1670000 2
19673 19675 19677 19678 1 180.0000771 15.1670000 2
19673 19675 19677 19679 1 180.0000771 15.1670000 2
19676 19675 19677 19678 1 180.0000771 15.1670000 2
19676 19675 19677 19679 1 180.0000771 15.1670000 2
19673 19677 19675 19676 4 180.0000771 4.6024000 2
19675 19677 19679 19680 1 180.0000771 15.1670000 2
19675 19677 19679 19681 1 180.0000771 15.1670000 2
19678 19677 19679 19680 1 180.0000771 15.1670000 2
19678 19677 19679 19681 1 180.0000771 15.1670000 2
19675 19679 19677 19678 4 180.0000771 4.6024000 2
19672 19679 19681 19682 4 180.0000771 4.6024000 2
19677 19679 19681 19682 1 180.0000771 15.1670000 2
19680 19679 19681 19682 1 180.0000771 15.1670000 2
19672 19681 19679 19677 1 180.0000771 15.1670000 2
19672 19681 19679 19680 1 180.0000771 15.1670000 2
19677 19681 19679 19680 4 180.0000771 4.6024000 2
19683 19684 19685 19686 1 180.0000771 15.1670000 2
19683 19684 19685 19687 1 180.0000771 15.1670000 2
19686 19684 19685 19687 4 180.0000771 4.6024000 2
19683 19684 19693 19685 4 180.0000771 4.6024000 2
19683 19684 19693 19691 1 180.0000771 15.1670000 2
19683 19684 19693 19694 1 180.0000771 15.1670000 2
19685 19684 19693 19691 1 180.0000771 15.1670000 2
19685 19684 19693 19694 1 180.0000771 15.1670000 2
19686 19685 19684 19693 1 180.0000771 15.1670000 2
19687 19685 19684 19693 1 180.0000771 15.1670000 2
19684 19685 19687 19688 1 180.0000771 15.1670000 2
19684 19685 19687 19689 1 180.0000771 15.1670000 2
19686 19685 19687 19688 1 180.0000771 15.1670000 2
19686 19685 19687 19689 1 180.0000771 15.1670000 2
19685 19687 19689 19690 1 180.0000771 15.1670000 2
19685 19687 19689 19691 1 180.0000771 15.1670000 2
19688 19687 19689 19690 1 180.0000771 15.1670000 2
19688 19687 19689 19691 1 180.0000771 15.1670000 2
19685 19689 19687 19688 4 180.0000771 4.6024000 2
19687 19689 19691 19692 1 180.0000771 15.1670000 2
19687 19689 19691 19693 1 180.0000771 15.1670000 2
19690 19689 19691 19692 1 180.0000771 15.1670000 2
19690 19689 19691 19693 1 180.0000771 15.1670000 2
19687 19691 19689 19690 4 180.0000771 4.6024000 2
19684 19691 19693 19694 4 180.0000771 4.6024000 2
19689 19691 19693 19694 1 180.0000771 15.1670000 2
19692 19691 19693 19694 1 180.0000771 15.1670000 2
19684 19693 19691 19689 1 180.0000771 15.1670000 2
19684 19693 19691 19692 1 180.0000771 15.1670000 2
19689 19693 19691 19692 4 180.0000771 4.6024000 2
19695 19696 19697 19698 1 180.0000771 15.1670000 2
19695 19696 19697 19699 1 180.0000771 15.1670000 2
19698 19696 19697 19699 4 180.0000771 4.6024000 2
19695 19696 19705 19697 4 180.0000771 4.6024000 2
19695 19696 19705 19703 1 180.0000771 15.1670000 2
19695 19696 19705 19706 1 180.0000771 15.1670000 2
19697 19696 19705 19703 1 180.0000771 15.1670000 2
19697 19696 19705 19706 1 180.0000771 15.1670000 2
19698 19697 19696 19705 1 180.0000771 15.1670000 2
19699 19697 19696 19705 1 180.0000771 15.1670000 2
19696 19697 19699 19700 1 180.0000771 15.1670000 2
19696 19697 19699 19701 1 180.0000771 15.1670000 2
19698 19697 19699 19700 1 180.0000771 15.1670000 2
19698 19697 19699 19701 1 180.0000771 15.1670000 2
19697 19699 19701 19702 1 180.0000771 15.1670000 2
19697 19699 19701 19703 1 180.0000771 15.1670000 2
19700 19699 19701 19702 1 180.0000771 15.1670000 2
19700 19699 19701 19703 1 180.0000771 15.1670000 2
19697 19701 19699 19700 4 180.0000771 4.6024000 2
19699 19701 19703 19704 1 180.0000771 15.1670000 2
19699 19701 19703 19705 1 180.0000771 15.1670000 2
19702 19701 19703 19704 1 180.0000771 15.1670000 2
19702 19701 19703 19705 1 180.0000771 15.1670000 2
19699 19703 19701 19702 4 180.0000771 4.6024000 2
19696 19703 19705 19706 4 180.0000771 4.6024000 2
19701 19703 19705 19706 1 180.0000771 15.1670000 2
19704 19703 19705 19706 1 180.0000771 15.1670000 2
19696 19705 19703 19701 1 180.0000771 15.1670000 2
19696 19705 19703 19704 1 180.0000771 15.1670000 2
19701 19705 19703 19704 4 180.0000771 4.6024000 2
19707 19708 19709 19710 1 180.0000771 15.1670000 2
19707 19708 19709 19711 1 180.0000771 15.1670000 2
19710 19708 19709 19711 4 180.0000771 4.6024000 2
19707 19708 19717 19709 4 180.0000771 4.6024000 2
19707 19708 19717 19715 1 180.0000771 15.1670000 2
19707 19708 19717 19718 1 180.0000771 15.1670000 2
19709 19708 19717 19715 1 180.0000771 15.1670000 2
19709 19708 19717 19718 1 180.0000771 15.1670000 2
19710 19709 19708 19717 1 180.0000771 15.1670000 2
19711 19709 19708 19717 1 180.0000771 15.1670000 2
19708 19709 19711 19712 1 180.0000771 15.1670000 2
19708 19709 19711 19713 1 180.0000771 15.1670000 2
19710 19709 19711 19712 1 180.0000771 15.1670000 2
19710 19709 19711 19713 1 180.0000771 15.1670000 2
19709 19711 19713 19714 1 180.0000771 15.1670000 2
19709 19711 19713 19715 1 180.0000771 15.1670000 2
19712 19711 19713 19714 1 180.0000771 15.1670000 2
19712 19711 19713 19715 1 180.0000771 15.1670000 2
19709 19713 19711 19712 4 180.0000771 4.6024000 2
19711 19713 19715 19716 1 180.0000771 15.1670000 2
19711 19713 19715 19717 1 180.0000771 15.1670000 2
19714 19713 19715 19716 1 180.0000771 15.1670000 2
19714 19713 19715 19717 1 180.0000771 15.1670000 2
19711 19715 19713 19714 4 180.0000771 4.6024000 2
19708 19715 19717 19718 4 180.0000771 4.6024000 2
19713 19715 19717 19718 1 180.0000771 15.1670000 2
19716 19715 19717 19718 1 180.0000771 15.1670000 2
19708 19717 19715 19713 1 180.0000771 15.1670000 2
19708 19717 19715 19716 1 180.0000771 15.1670000 2
19713 19717 19715 19716 4 180.0000771 4.6024000 2
19719 19720 19721 19722 1 180.0000771 15.1670000 2
19719 19720 19721 19723 1 180.0000771 15.1670000 2
19722 19720 19721 19723 4 180.0000771 4.6024000 2
19719 19720 19729 19721 4 180.0000771 4.6024000 2
19719 19720 19729 19727 1 180.0000771 15.1670000 2
19719 19720 19729 19730 1 180.0000771 15.1670000 2
19721 19720 19729 19727 1 180.0000771 15.1670000 2
19721 19720 19729 19730 1 180.0000771 15.1670000 2
19722 19721 19720 19729 1 180.0000771 15.1670000 2
19723 19721 19720 19729 1 180.0000771 15.1670000 2
19720 19721 19723 19724 1 180.0000771 15.1670000 2
19720 19721 19723 19725 1 180.0000771 15.1670000 2
19722 19721 19723 19724 1 180.0000771 15.1670000 2
19722 19721 19723 19725 1 180.0000771 15.1670000 2
19721 19723 19725 19726 1 180.0000771 15.1670000 2
19721 19723 19725 19727 1 180.0000771 15.1670000 2
19724 19723 19725 19726 1 180.0000771 15.1670000 2
19724 19723 19725 19727 1 180.0000771 15.1670000 2
19721 19725 19723 19724 4 180.0000771 4.6024000 2
19723 19725 19727 19728 1 180.0000771 15.1670000 2
19723 19725 19727 19729 1 180.0000771 15.1670000 2
19726 19725 19727 19728 1 180.0000771 15.1670000 2
19726 19725 19727 19729 1 180.0000771 15.1670000 2
19723 19727 19725 19726 4 180.0000771 4.6024000 2
19720 19727 19729 19730 4 180.0000771 4.6024000 2
19725 19727 19729 19730 1 180.0000771 15.1670000 2
19728 19727 19729 19730 1 180.0000771 15.1670000 2
19720 19729 19727 19725 1 180.0000771 15.1670000 2
19720 19729 19727 19728 1 180.0000771 15.1670000 2
19725 19729 19727 19728 4 180.0000771 4.6024000 2
19731 19732 19733 19734 1 180.0000771 15.1670000 2
19731 19732 19733 19735 1 180.0000771 15.1670000 2
19734 19732 19733 19735 4 180.0000771 4.6024000 2
19731 19732 19741 19733 4 180.0000771 4.6024000 2
19731 19732 19741 19739 1 180.0000771 15.1670000 2
19731 19732 19741 19742 1 180.0000771 15.1670000 2
19733 19732 19741 19739 1 180.0000771 15.1670000 2
19733 19732 19741 19742 1 180.0000771 15.1670000 2
19734 19733 19732 19741 1 180.0000771 15.1670000 2
19735 19733 19732 19741 1 180.0000771 15.1670000 2
19732 19733 19735 19736 1 180.0000771 15.1670000 2
19732 19733 19735 19737 1 180.0000771 15.1670000 2
19734 19733 19735 19736 1 180.0000771 15.1670000 2
19734 19733 19735 19737 1 180.0000771 15.1670000 2
19733 19735 19737 19738 1 180.0000771 15.1670000 2
19733 19735 19737 19739 1 180.0000771 15.1670000 2
19736 19735 19737 19738 1 180.0000771 15.1670000 2
19736 19735 19737 19739 1 180.0000771 15.1670000 2
19733 19737 19735 19736 4 180.0000771 4.6024000 2
19735 19737 19739 19740 1 180.0000771 15.1670000 2
19735 19737 19739 19741 1 180.0000771 15.1670000 2
19738 19737 19739 19740 1 180.0000771 15.1670000 2
19738 19737 19739 19741 1 180.0000771 15.1670000 2
19735 19739 19737 19738 4 180.0000771 4.6024000 2
19732 19739 19741 19742 4 180.0000771 4.6024000 2
19737 19739 19741 19742 1 180.0000771 15.1670000 2
19740 19739 19741 19742 1 180.0000771 15.1670000 2
19732 19741 19739 19737 1 180.0000771 15.1670000 2
19732 19741 19739 19740 1 180.0000771 15.1670000 2
19737 19741 19739 19740 4 180.0000771 4.6024000 2
19743 19744 19745 19746 1 180.0000771 15.1670000 2
19743 19744 19745 19747 1 180.0000771 15.1670000 2
19746 19744 19745 19747 4 180.0000771 4.6024000 2
19743 19744 19753 19745 4 180.0000771 4.6024000 2
19743 19744 19753 19751 1 180.0000771 15.1670000 2
19743 19744 19753 19754 1 180.0000771 15.1670000 2
19745 19744 19753 19751 1 180.0000771 15.1670000 2
19745 19744 19753 19754 1 180.0000771 15.1670000 2
19746 19745 19744 19753 1 180.0000771 15.1670000 2
19747 19745 19744 19753 1 180.0000771 15.1670000 2
19744 19745 19747 19748 1 180.0000771 15.1670000 2
19744 19745 19747 19749 1 180.0000771 15.1670000 2
19746 19745 19747 19748 1 180.0000771 15.1670000 2
19746 19745 19747 19749 1 180.0000771 15.1670000 2
19745 19747 19749 19750 1 180.0000771 15.1670000 2
19745 19747 19749 19751 1 180.0000771 15.1670000 2
19748 19747 19749 19750 1 180.0000771 15.1670000 2
19748 19747 19749 19751 1 180.0000771 15.1670000 2
19745 19749 19747 19748 4 180.0000771 4.6024000 2
19747 19749 19751 19752 1 180.0000771 15.1670000 2
19747 19749 19751 19753 1 180.0000771 15.1670000 2
19750 19749 19751 19752 1 180.0000771 15.1670000 2
19750 19749 19751 19753 1 180.0000771 15.1670000 2
19747 19751 19749 19750 4 180.0000771 4.6024000 2
19744 19751 19753 19754 4 180.0000771 4.6024000 2
19749 19751 19753 19754 1 180.0000771 15.1670000 2
19752 19751 19753 19754 1 180.0000771 15.1670000 2
19744 19753 19751 19749 1 180.0000771 15.1670000 2
19744 19753 19751 19752 1 180.0000771 15.1670000 2
19749 19753 19751 19752 4 180.0000771 4.6024000 2
19755 19756 19757 19758 1 180.0000771 15.1670000 2
19755 19756 19757 19759 1 180.0000771 15.1670000 2
19758 19756 19757 19759 4 180.0000771 4.6024000 2
19755 19756 19765 19757 4 180.0000771 4.6024000 2
19755 19756 19765 19763 1 180.0000771 15.1670000 2
19755 19756 19765 19766 1 180.0000771 15.1670000 2
19757 19756 19765 19763 1 180.0000771 15.1670000 2
19757 19756 19765 19766 1 180.0000771 15.1670000 2
19758 19757 19756 19765 1 180.0000771 15.1670000 2
19759 19757 19756 19765 1 180.0000771 15.1670000 2
19756 19757 19759 19760 1 180.0000771 15.1670000 2
19756 19757 19759 19761 1 180.0000771 15.1670000 2
19758 19757 19759 19760 1 180.0000771 15.1670000 2
19758 19757 19759 19761 1 180.0000771 15.1670000 2
19757 19759 19761 19762 1 180.0000771 15.1670000 2
19757 19759 19761 19763 1 180.0000771 15.1670000 2
19760 19759 19761 19762 1 180.0000771 15.1670000 2
19760 19759 19761 19763 1 180.0000771 15.1670000 2
19757 19761 19759 19760 4 180.0000771 4.6024000 2
19759 19761 19763 19764 1 180.0000771 15.1670000 2
19759 19761 19763 19765 1 180.0000771 15.1670000 2
19762 19761 19763 19764 1 180.0000771 15.1670000 2
19762 19761 19763 19765 1 180.0000771 15.1670000 2
19759 19763 19761 19762 4 180.0000771 4.6024000 2
19756 19763 19765 19766 4 180.0000771 4.6024000 2
19761 19763 19765 19766 1 180.0000771 15.1670000 2
19764 19763 19765 19766 1 180.0000771 15.1670000 2
19756 19765 19763 19761 1 180.0000771 15.1670000 2
19756 19765 19763 19764 1 180.0000771 15.1670000 2
19761 19765 19763 19764 4 180.0000771 4.6024000 2
19767 19768 19769 19770 1 180.0000771 15.1670000 2
19767 19768 19769 19771 1 180.0000771 15.1670000 2
19770 19768 19769 19771 4 180.0000771 4.6024000 2
19767 19768 19777 19769 4 180.0000771 4.6024000 2
19767 19768 19777 19775 1 180.0000771 15.1670000 2
19767 19768 19777 19778 1 180.0000771 15.1670000 2
19769 19768 19777 19775 1 180.0000771 15.1670000 2
19769 19768 19777 19778 1 180.0000771 15.1670000 2
19770 19769 19768 19777 1 180.0000771 15.1670000 2
19771 19769 19768 19777 1 180.0000771 15.1670000 2
19768 19769 19771 19772 1 180.0000771 15.1670000 2
19768 19769 19771 19773 1 180.0000771 15.1670000 2
19770 19769 19771 19772 1 180.0000771 15.1670000 2
19770 19769 19771 19773 1 180.0000771 15.1670000 2
19769 19771 19773 19774 1 180.0000771 15.1670000 2
19769 19771 19773 19775 1 180.0000771 15.1670000 2
19772 19771 19773 19774 1 180.0000771 15.1670000 2
19772 19771 19773 19775 1 180.0000771 15.1670000 2
19769 19773 19771 19772 4 180.0000771 4.6024000 2
19771 19773 19775 19776 1 180.0000771 15.1670000 2
19771 19773 19775 19777 1 180.0000771 15.1670000 2
19774 19773 19775 19776 1 180.0000771 15.1670000 2
19774 19773 19775 19777 1 180.0000771 15.1670000 2
19771 19775 19773 19774 4 180.0000771 4.6024000 2
19768 19775 19777 19778 4 180.0000771 4.6024000 2
19773 19775 19777 19778 1 180.0000771 15.1670000 2
19776 19775 19777 19778 1 180.0000771 15.1670000 2
19768 19777 19775 19773 1 180.0000771 15.1670000 2
19768 19777 19775 19776 1 180.0000771 15.1670000 2
19773 19777 19775 19776 4 180.0000771 4.6024000 2
19779 19780 19781 19782 1 180.0000771 15.1670000 2
19779 19780 19781 19783 1 180.0000771 15.1670000 2
19782 19780 19781 19783 4 180.0000771 4.6024000 2
19779 19780 19789 19781 4 180.0000771 4.6024000 2
19779 19780 19789 19787 1 180.0000771 15.1670000 2
19779 19780 19789 19790 1 180.0000771 15.1670000 2
19781 19780 19789 19787 1 180.0000771 15.1670000 2
19781 19780 19789 19790 1 180.0000771 15.1670000 2
19782 19781 19780 19789 1 180.0000771 15.1670000 2
19783 19781 19780 19789 1 180.0000771 15.1670000 2
19780 19781 19783 19784 1 180.0000771 15.1670000 2
19780 19781 19783 19785 1 180.0000771 15.1670000 2
19782 19781 19783 19784 1 180.0000771 15.1670000 2
19782 19781 19783 19785 1 180.0000771 15.1670000 2
19781 19783 19785 19786 1 180.0000771 15.1670000 2
19781 19783 19785 19787 1 180.0000771 15.1670000 2
19784 19783 19785 19786 1 180.0000771 15.1670000 2
19784 19783 19785 19787 1 180.0000771 15.1670000 2
19781 19785 19783 19784 4 180.0000771 4.6024000 2
19783 19785 19787 19788 1 180.0000771 15.1670000 2
19783 19785 19787 19789 1 180.0000771 15.1670000 2
19786 19785 19787 19788 1 180.0000771 15.1670000 2
19786 19785 19787 19789 1 180.0000771 15.1670000 2
19783 19787 19785 19786 4 180.0000771 4.6024000 2
19780 19787 19789 19790 4 180.0000771 4.6024000 2
19785 19787 19789 19790 1 180.0000771 15.1670000 2
19788 19787 19789 19790 1 180.0000771 15.1670000 2
19780 19789 19787 19785 1 180.0000771 15.1670000 2
19780 19789 19787 19788 1 180.0000771 15.1670000 2
19785 19789 19787 19788 4 180.0000771 4.6024000 2
19791 19792 19793 19794 1 180.0000771 15.1670000 2
19791 19792 19793 19795 1 180.0000771 15.1670000 2
19794 19792 19793 19795 4 180.0000771 4.6024000 2
19791 19792 19801 19793 4 180.0000771 4.6024000 2
19791 19792 19801 19799 1 180.0000771 15.1670000 2
19791 19792 19801 19802 1 180.0000771 15.1670000 2
19793 19792 19801 19799 1 180.0000771 15.1670000 2
19793 19792 19801 19802 1 180.0000771 15.1670000 2
19794 19793 19792 19801 1 180.0000771 15.1670000 2
19795 19793 19792 19801 1 180.0000771 15.1670000 2
19792 19793 19795 19796 1 180.0000771 15.1670000 2
19792 19793 19795 19797 1 180.0000771 15.1670000 2
19794 19793 19795 19796 1 180.0000771 15.1670000 2
19794 19793 19795 19797 1 180.0000771 15.1670000 2
19793 19795 19797 19798 1 180.0000771 15.1670000 2
19793 19795 19797 19799 1 180.0000771 15.1670000 2
19796 19795 19797 19798 1 180.0000771 15.1670000 2
19796 19795 19797 19799 1 180.0000771 15.1670000 2
19793 19797 19795 19796 4 180.0000771 4.6024000 2
19795 19797 19799 19800 1 180.0000771 15.1670000 2
19795 19797 19799 19801 1 180.0000771 15.1670000 2
19798 19797 19799 19800 1 180.0000771 15.1670000 2
19798 19797 19799 19801 1 180.0000771 15.1670000 2
19795 19799 19797 19798 4 180.0000771 4.6024000 2
19792 19799 19801 19802 4 180.0000771 4.6024000 2
19797 19799 19801 19802 1 180.0000771 15.1670000 2
19800 19799 19801 19802 1 180.0000771 15.1670000 2
19792 19801 19799 19797 1 180.0000771 15.1670000 2
19792 19801 19799 19800 1 180.0000771 15.1670000 2
19797 19801 19799 19800 4 180.0000771 4.6024000 2
19803 19804 19805 19806 1 180.0000771 15.1670000 2
19803 19804 19805 19807 1 180.0000771 15.1670000 2
19806 19804 19805 19807 4 180.0000771 4.6024000 2
19803 19804 19813 19805 4 180.0000771 4.6024000 2
19803 19804 19813 19811 1 180.0000771 15.1670000 2
19803 19804 19813 19814 1 180.0000771 15.1670000 2
19805 19804 19813 19811 1 180.0000771 15.1670000 2
19805 19804 19813 19814 1 180.0000771 15.1670000 2
19806 19805 19804 19813 1 180.0000771 15.1670000 2
19807 19805 19804 19813 1 180.0000771 15.1670000 2
19804 19805 19807 19808 1 180.0000771 15.1670000 2
19804 19805 19807 19809 1 180.0000771 15.1670000 2
19806 19805 19807 19808 1 180.0000771 15.1670000 2
19806 19805 19807 19809 1 180.0000771 15.1670000 2
19805 19807 19809 19810 1 180.0000771 15.1670000 2
19805 19807 19809 19811 1 180.0000771 15.1670000 2
19808 19807 19809 19810 1 180.0000771 15.1670000 2
19808 19807 19809 19811 1 180.0000771 15.1670000 2
19805 19809 19807 19808 4 180.0000771 4.6024000 2
19807 19809 19811 19812 1 180.0000771 15.1670000 2
19807 19809 19811 19813 1 180.0000771 15.1670000 2
19810 19809 19811 19812 1 180.0000771 15.1670000 2
19810 19809 19811 19813 1 180.0000771 15.1670000 2
19807 19811 19809 19810 4 180.0000771 4.6024000 2
19804 19811 19813 19814 4 180.0000771 4.6024000 2
19809 19811 19813 19814 1 180.0000771 15.1670000 2
19812 19811 19813 19814 1 180.0000771 15.1670000 2
19804 19813 19811 19809 1 180.0000771 15.1670000 2
19804 19813 19811 19812 1 180.0000771 15.1670000 2
19809 19813 19811 19812 4 180.0000771 4.6024000 2
19815 19816 19817 19818 1 180.0000771 15.1670000 2
19815 19816 19817 19819 1 180.0000771 15.1670000 2
19818 19816 19817 19819 4 180.0000771 4.6024000 2
19815 19816 19825 19817 4 180.0000771 4.6024000 2
19815 19816 19825 19823 1 180.0000771 15.1670000 2
19815 19816 19825 19826 1 180.0000771 15.1670000 2
19817 19816 19825 19823 1 180.0000771 15.1670000 2
19817 19816 19825 19826 1 180.0000771 15.1670000 2
19818 19817 19816 19825 1 180.0000771 15.1670000 2
19819 19817 19816 19825 1 180.0000771 15.1670000 2
19816 19817 19819 19820 1 180.0000771 15.1670000 2
19816 19817 19819 19821 1 180.0000771 15.1670000 2
19818 19817 19819 19820 1 180.0000771 15.1670000 2
19818 19817 19819 19821 1 180.0000771 15.1670000 2
19817 19819 19821 19822 1 180.0000771 15.1670000 2
19817 19819 19821 19823 1 180.0000771 15.1670000 2
19820 19819 19821 19822 1 180.0000771 15.1670000 2
19820 19819 19821 19823 1 180.0000771 15.1670000 2
19817 19821 19819 19820 4 180.0000771 4.6024000 2
19819 19821 19823 19824 1 180.0000771 15.1670000 2
19819 19821 19823 19825 1 180.0000771 15.1670000 2
19822 19821 19823 19824 1 180.0000771 15.1670000 2
19822 19821 19823 19825 1 180.0000771 15.1670000 2
19819 19823 19821 19822 4 180.0000771 4.6024000 2
19816 19823 19825 19826 4 180.0000771 4.6024000 2
19821 19823 19825 19826 1 180.0000771 15.1670000 2
19824 19823 19825 19826 1 180.0000771 15.1670000 2
19816 19825 19823 19821 1 180.0000771 15.1670000 2
19816 19825 19823 19824 1 180.0000771 15.1670000 2
19821 19825 19823 19824 4 180.0000771 4.6024000 2
19827 19828 19829 19830 1 180.0000771 15.1670000 2
19827 19828 19829 19831 1 180.0000771 15.1670000 2
19830 19828 19829 19831 4 180.0000771 4.6024000 2
19827 19828 19837 19829 4 180.0000771 4.6024000 2
19827 19828 19837 19835 1 180.0000771 15.1670000 2
19827 19828 19837 19838 1 180.0000771 15.1670000 2
19829 19828 19837 19835 1 180.0000771 15.1670000 2
19829 19828 19837 19838 1 180.0000771 15.1670000 2
19830 19829 19828 19837 1 180.0000771 15.1670000 2
19831 19829 19828 19837 1 180.0000771 15.1670000 2
19828 19829 19831 19832 1 180.0000771 15.1670000 2
19828 19829 19831 19833 1 180.0000771 15.1670000 2
19830 19829 19831 19832 1 180.0000771 15.1670000 2
19830 19829 19831 19833 1 180.0000771 15.1670000 2
19829 19831 19833 19834 1 180.0000771 15.1670000 2
19829 19831 19833 19835 1 180.0000771 15.1670000 2
19832 19831 19833 19834 1 180.0000771 15.1670000 2
19832 19831 19833 19835 1 180.0000771 15.1670000 2
19829 19833 19831 19832 4 180.0000771 4.6024000 2
19831 19833 19835 19836 1 180.0000771 15.1670000 2
19831 19833 19835 19837 1 180.0000771 15.1670000 2
19834 19833 19835 19836 1 180.0000771 15.1670000 2
19834 19833 19835 19837 1 180.0000771 15.1670000 2
19831 19835 19833 19834 4 180.0000771 4.6024000 2
19828 19835 19837 19838 4 180.0000771 4.6024000 2
19833 19835 19837 19838 1 180.0000771 15.1670000 2
19836 19835 19837 19838 1 180.0000771 15.1670000 2
19828 19837 19835 19833 1 180.0000771 15.1670000 2
19828 19837 19835 19836 1 180.0000771 15.1670000 2
19833 19837 19835 19836 4 180.0000771 4.6024000 2
19839 19840 19841 19842 1 180.0000771 15.1670000 2
19839 19840 19841 19843 1 180.0000771 15.1670000 2
19842 19840 19841 19843 4 180.0000771 4.6024000 2
19839 19840 19849 19841 4 180.0000771 4.6024000 2
19839 19840 19849 19847 1 180.0000771 15.1670000 2
19839 19840 19849 19850 1 180.0000771 15.1670000 2
19841 19840 19849 19847 1 180.0000771 15.1670000 2
19841 19840 19849 19850 1 180.0000771 15.1670000 2
19842 19841 19840 19849 1 180.0000771 15.1670000 2
19843 19841 19840 19849 1 180.0000771 15.1670000 2
19840 19841 19843 19844 1 180.0000771 15.1670000 2
19840 19841 19843 19845 1 180.0000771 15.1670000 2
19842 19841 19843 19844 1 180.0000771 15.1670000 2
19842 19841 19843 19845 1 180.0000771 15.1670000 2
19841 19843 19845 19846 1 180.0000771 15.1670000 2
19841 19843 19845 19847 1 180.0000771 15.1670000 2
19844 19843 19845 19846 1 180.0000771 15.1670000 2
19844 19843 19845 19847 1 180.0000771 15.1670000 2
19841 19845 19843 19844 4 180.0000771 4.6024000 2
19843 19845 19847 19848 1 180.0000771 15.1670000 2
19843 19845 19847 19849 1 180.0000771 15.1670000 2
19846 19845 19847 19848 1 180.0000771 15.1670000 2
19846 19845 19847 19849 1 180.0000771 15.1670000 2
19843 19847 19845 19846 4 180.0000771 4.6024000 2
19840 19847 19849 19850 4 180.0000771 4.6024000 2
19845 19847 19849 19850 1 180.0000771 15.1670000 2
19848 19847 19849 19850 1 180.0000771 15.1670000 2
19840 19849 19847 19845 1 180.0000771 15.1670000 2
19840 19849 19847 19848 1 180.0000771 15.1670000 2
19845 19849 19847 19848 4 180.0000771 4.6024000 2
19851 19852 19853 19854 1 180.0000771 15.1670000 2
19851 19852 19853 19855 1 180.0000771 15.1670000 2
19854 19852 19853 19855 4 180.0000771 4.6024000 2
19851 19852 19861 19853 4 180.0000771 4.6024000 2
19851 19852 19861 19859 1 180.0000771 15.1670000 2
19851 19852 19861 19862 1 180.0000771 15.1670000 2
19853 19852 19861 19859 1 180.0000771 15.1670000 2
19853 19852 19861 19862 1 180.0000771 15.1670000 2
19854 19853 19852 19861 1 180.0000771 15.1670000 2
19855 19853 19852 19861 1 180.0000771 15.1670000 2
19852 19853 19855 19856 1 180.0000771 15.1670000 2
19852 19853 19855 19857 1 180.0000771 15.1670000 2
19854 19853 19855 19856 1 180.0000771 15.1670000 2
19854 19853 19855 19857 1 180.0000771 15.1670000 2
19853 19855 19857 19858 1 180.0000771 15.1670000 2
19853 19855 19857 19859 1 180.0000771 15.1670000 2
19856 19855 19857 19858 1 180.0000771 15.1670000 2
19856 19855 19857 19859 1 180.0000771 15.1670000 2
19853 19857 19855 19856 4 180.0000771 4.6024000 2
19855 19857 19859 19860 1 180.0000771 15.1670000 2
19855 19857 19859 19861 1 180.0000771 15.1670000 2
19858 19857 19859 19860 1 180.0000771 15.1670000 2
19858 19857 19859 19861 1 180.0000771 15.1670000 2
19855 19859 19857 19858 4 180.0000771 4.6024000 2
19852 19859 19861 19862 4 180.0000771 4.6024000 2
19857 19859 19861 19862 1 180.0000771 15.1670000 2
19860 19859 19861 19862 1 180.0000771 15.1670000 2
19852 19861 19859 19857 1 180.0000771 15.1670000 2
19852 19861 19859 19860 1 180.0000771 15.1670000 2
19857 19861 19859 19860 4 180.0000771 4.6024000 2
19863 19864 19865 19866 1 180.0000771 15.1670000 2
19863 19864 19865 19867 1 180.0000771 15.1670000 2
19866 19864 19865 19867 4 180.0000771 4.6024000 2
19863 19864 19873 19865 4 180.0000771 4.6024000 2
19863 19864 19873 19871 1 180.0000771 15.1670000 2
19863 19864 19873 19874 1 180.0000771 15.1670000 2
19865 19864 19873 19871 1 180.0000771 15.1670000 2
19865 19864 19873 19874 1 180.0000771 15.1670000 2
19866 19865 19864 19873 1 180.0000771 15.1670000 2
19867 19865 19864 19873 1 180.0000771 15.1670000 2
19864 19865 19867 19868 1 180.0000771 15.1670000 2
19864 19865 19867 19869 1 180.0000771 15.1670000 2
19866 19865 19867 19868 1 180.0000771 15.1670000 2
19866 19865 19867 19869 1 180.0000771 15.1670000 2
19865 19867 19869 19870 1 180.0000771 15.1670000 2
19865 19867 19869 19871 1 180.0000771 15.1670000 2
19868 19867 19869 19870 1 180.0000771 15.1670000 2
19868 19867 19869 19871 1 180.0000771 15.1670000 2
19865 19869 19867 19868 4 180.0000771 4.6024000 2
19867 19869 19871 19872 1 180.0000771 15.1670000 2
19867 19869 19871 19873 1 180.0000771 15.1670000 2
19870 19869 19871 19872 1 180.0000771 15.1670000 2
19870 19869 19871 19873 1 180.0000771 15.1670000 2
19867 19871 19869 19870 4 180.0000771 4.6024000 2
19864 19871 19873 19874 4 180.0000771 4.6024000 2
19869 19871 19873 19874 1 180.0000771 15.1670000 2
19872 19871 19873 19874 1 180.0000771 15.1670000 2
19864 19873 19871 19869 1 180.0000771 15.1670000 2
19864 19873 19871 19872 1 180.0000771 15.1670000 2
19869 19873 19871 19872 4 180.0000771 4.6024000 2
19875 19876 19877 19878 1 180.0000771 15.1670000 2
19875 19876 19877 19879 1 180.0000771 15.1670000 2
19878 19876 19877 19879 4 180.0000771 4.6024000 2
19875 19876 19885 19877 4 180.0000771 4.6024000 2
19875 19876 19885 19883 1 180.0000771 15.1670000 2
19875 19876 19885 19886 1 180.0000771 15.1670000 2
19877 19876 19885 19883 1 180.0000771 15.1670000 2
19877 19876 19885 19886 1 180.0000771 15.1670000 2
19878 19877 19876 19885 1 180.0000771 15.1670000 2
19879 19877 19876 19885 1 180.0000771 15.1670000 2
19876 19877 19879 19880 1 180.0000771 15.1670000 2
19876 19877 19879 19881 1 180.0000771 15.1670000 2
19878 19877 19879 19880 1 180.0000771 15.1670000 2
19878 19877 19879 19881 1 180.0000771 15.1670000 2
19877 19879 19881 19882 1 180.0000771 15.1670000 2
19877 19879 19881 19883 1 180.0000771 15.1670000 2
19880 19879 19881 19882 1 180.0000771 15.1670000 2
19880 19879 19881 19883 1 180.0000771 15.1670000 2
19877 19881 19879 19880 4 180.0000771 4.6024000 2
19879 19881 19883 19884 1 180.0000771 15.1670000 2
19879 19881 19883 19885 1 180.0000771 15.1670000 2
19882 19881 19883 19884 1 180.0000771 15.1670000 2
19882 19881 19883 19885 1 180.0000771 15.1670000 2
19879 19883 19881 19882 4 180.0000771 4.6024000 2
19876 19883 19885 19886 4 180.0000771 4.6024000 2
19881 19883 19885 19886 1 180.0000771 15.1670000 2
19884 19883 19885 19886 1 180.0000771 15.1670000 2
19876 19885 19883 19881 1 180.0000771 15.1670000 2
19876 19885 19883 19884 1 180.0000771 15.1670000 2
19881 19885 19883 19884 4 180.0000771 4.6024000 2
19887 19888 19889 19890 1 180.0000771 15.1670000 2
19887 19888 19889 19891 1 180.0000771 15.1670000 2
19890 19888 19889 19891 4 180.0000771 4.6024000 2
19887 19888 19897 19889 4 180.0000771 4.6024000 2
19887 19888 19897 19895 1 180.0000771 15.1670000 2
19887 19888 19897 19898 1 180.0000771 15.1670000 2
19889 19888 19897 19895 1 180.0000771 15.1670000 2
19889 19888 19897 19898 1 180.0000771 15.1670000 2
19890 19889 19888 19897 1 180.0000771 15.1670000 2
19891 19889 19888 19897 1 180.0000771 15.1670000 2
19888 19889 19891 19892 1 180.0000771 15.1670000 2
19888 19889 19891 19893 1 180.0000771 15.1670000 2
19890 19889 19891 19892 1 180.0000771 15.1670000 2
19890 19889 19891 19893 1 180.0000771 15.1670000 2
19889 19891 19893 19894 1 180.0000771 15.1670000 2
19889 19891 19893 19895 1 180.0000771 15.1670000 2
19892 19891 19893 19894 1 180.0000771 15.1670000 2
19892 19891 19893 19895 1 180.0000771 15.1670000 2
19889 19893 19891 19892 4 180.0000771 4.6024000 2
19891 19893 19895 19896 1 180.0000771 15.1670000 2
19891 19893 19895 19897 1 180.0000771 15.1670000 2
19894 19893 19895 19896 1 180.0000771 15.1670000 2
19894 19893 19895 19897 1 180.0000771 15.1670000 2
19891 19895 19893 19894 4 180.0000771 4.6024000 2
19888 19895 19897 19898 4 180.0000771 4.6024000 2
19893 19895 19897 19898 1 180.0000771 15.1670000 2
19896 19895 19897 19898 1 180.0000771 15.1670000 2
19888 19897 19895 19893 1 180.0000771 15.1670000 2
19888 19897 19895 19896 1 180.0000771 15.1670000 2
19893 19897 19895 19896 4 180.0000771 4.6024000 2
19899 19900 19901 19902 1 180.0000771 15.1670000 2
19899 19900 19901 19903 1 180.0000771 15.1670000 2
19902 19900 19901 19903 4 180.0000771 4.6024000 2
19899 19900 19909 19901 4 180.0000771 4.6024000 2
19899 19900 19909 19907 1 180.0000771 15.1670000 2
19899 19900 19909 19910 1 180.0000771 15.1670000 2
19901 19900 19909 19907 1 180.0000771 15.1670000 2
19901 19900 19909 19910 1 180.0000771 15.1670000 2
19902 19901 19900 19909 1 180.0000771 15.1670000 2
19903 19901 19900 19909 1 180.0000771 15.1670000 2
19900 19901 19903 19904 1 180.0000771 15.1670000 2
19900 19901 19903 19905 1 180.0000771 15.1670000 2
19902 19901 19903 19904 1 180.0000771 15.1670000 2
19902 19901 19903 19905 1 180.0000771 15.1670000 2
19901 19903 19905 19906 1 180.0000771 15.1670000 2
19901 19903 19905 19907 1 180.0000771 15.1670000 2
19904 19903 19905 19906 1 180.0000771 15.1670000 2
19904 19903 19905 19907 1 180.0000771 15.1670000 2
19901 19905 19903 19904 4 180.0000771 4.6024000 2
19903 19905 19907 19908 1 180.0000771 15.1670000 2
19903 19905 19907 19909 1 180.0000771 15.1670000 2
19906 19905 19907 19908 1 180.0000771 15.1670000 2
19906 19905 19907 19909 1 180.0000771 15.1670000 2
19903 19907 19905 19906 4 180.0000771 4.6024000 2
19900 19907 19909 19910 4 180.0000771 4.6024000 2
19905 19907 19909 19910 1 180.0000771 15.1670000 2
19908 19907 19909 19910 1 180.0000771 15.1670000 2
19900 19909 19907 19905 1 180.0000771 15.1670000 2
19900 19909 19907 19908 1 180.0000771 15.1670000 2
19905 19909 19907 19908 4 180.0000771 4.6024000 2
19911 19912 19913 19914 1 180.0000771 15.1670000 2
19911 19912 19913 19915 1 180.0000771 15.1670000 2
19914 19912 19913 19915 4 180.0000771 4.6024000 2
19911 19912 19921 19913 4 180.0000771 4.6024000 2
19911 19912 19921 19919 1 180.0000771 15.1670000 2
19911 19912 19921 19922 1 180.0000771 15.1670000 2
19913 19912 19921 19919 1 180.0000771 15.1670000 2
19913 19912 19921 19922 1 180.0000771 15.1670000 2
19914 19913 19912 19921 1 180.0000771 15.1670000 2
19915 19913 19912 19921 1 180.0000771 15.1670000 2
19912 19913 19915 19916 1 180.0000771 15.1670000 2
19912 19913 19915 19917 1 180.0000771 15.1670000 2
19914 19913 19915 19916 1 180.0000771 15.1670000 2
19914 19913 19915 19917 1 180.0000771 15.1670000 2
19913 19915 19917 19918 1 180.0000771 15.1670000 2
19913 19915 19917 19919 1 180.0000771 15.1670000 2
19916 19915 19917 19918 1 180.0000771 15.1670000 2
19916 19915 19917 19919 1 180.0000771 15.1670000 2
19913 19917 19915 19916 4 180.0000771 4.6024000 2
19915 19917 19919 19920 1 180.0000771 15.1670000 2
19915 19917 19919 19921 1 180.0000771 15.1670000 2
19918 19917 19919 19920 1 180.0000771 15.1670000 2
19918 19917 19919 19921 1 180.0000771 15.1670000 2
19915 19919 19917 19918 4 180.0000771 4.6024000 2
19912 19919 19921 19922 4 180.0000771 4.6024000 2
19917 19919 19921 19922 1 180.0000771 15.1670000 2
19920 19919 19921 19922 1 180.0000771 15.1670000 2
19912 19921 19919 19917 1 180.0000771 15.1670000 2
19912 19921 19919 19920 1 180.0000771 15.1670000 2
19917 19921 19919 19920 4 180.0000771 4.6024000 2
19923 19924 19925 19926 1 180.0000771 15.1670000 2
19923 19924 19925 19927 1 180.0000771 15.1670000 2
19926 19924 19925 19927 4 180.0000771 4.6024000 2
19923 19924 19933 19925 4 180.0000771 4.6024000 2
19923 19924 19933 19931 1 180.0000771 15.1670000 2
19923 19924 19933 19934 1 180.0000771 15.1670000 2
19925 19924 19933 19931 1 180.0000771 15.1670000 2
19925 19924 19933 19934 1 180.0000771 15.1670000 2
19926 19925 19924 19933 1 180.0000771 15.1670000 2
19927 19925 19924 19933 1 180.0000771 15.1670000 2
19924 19925 19927 19928 1 180.0000771 15.1670000 2
19924 19925 19927 19929 1 180.0000771 15.1670000 2
19926 19925 19927 19928 1 180.0000771 15.1670000 2
19926 19925 19927 19929 1 180.0000771 15.1670000 2
19925 19927 19929 19930 1 180.0000771 15.1670000 2
19925 19927 19929 19931 1 180.0000771 15.1670000 2
19928 19927 19929 19930 1 180.0000771 15.1670000 2
19928 19927 19929 19931 1 180.0000771 15.1670000 2
19925 19929 19927 19928 4 180.0000771 4.6024000 2
19927 19929 19931 19932 1 180.0000771 15.1670000 2
19927 19929 19931 19933 1 180.0000771 15.1670000 2
19930 19929 19931 19932 1 180.0000771 15.1670000 2
19930 19929 19931 19933 1 180.0000771 15.1670000 2
19927 19931 19929 19930 4 180.0000771 4.6024000 2
19924 19931 19933 19934 4 180.0000771 4.6024000 2
19929 19931 19933 19934 1 180.0000771 15.1670000 2
19932 19931 19933 19934 1 180.0000771 15.1670000 2
19924 19933 19931 19929 1 180.0000771 15.1670000 2
19924 19933 19931 19932 1 180.0000771 15.1670000 2
19929 19933 19931 19932 4 180.0000771 4.6024000 2
19935 19936 19937 19938 1 180.0000771 15.1670000 2
19935 19936 19937 19939 1 180.0000771 15.1670000 2
19938 19936 19937 19939 4 180.0000771 4.6024000 2
19935 19936 19945 19937 4 180.0000771 4.6024000 2
19935 19936 19945 19943 1 180.0000771 15.1670000 2
19935 19936 19945 19946 1 180.0000771 15.1670000 2
19937 19936 19945 19943 1 180.0000771 15.1670000 2
19937 19936 19945 19946 1 180.0000771 15.1670000 2
19938 19937 19936 19945 1 180.0000771 15.1670000 2
19939 19937 19936 19945 1 180.0000771 15.1670000 2
19936 19937 19939 19940 1 180.0000771 15.1670000 2
19936 19937 19939 19941 1 180.0000771 15.1670000 2
19938 19937 19939 19940 1 180.0000771 15.1670000 2
19938 19937 19939 19941 1 180.0000771 15.1670000 2
19937 19939 19941 19942 1 180.0000771 15.1670000 2
19937 19939 19941 19943 1 180.0000771 15.1670000 2
19940 19939 19941 19942 1 180.0000771 15.1670000 2
19940 19939 19941 19943 1 180.0000771 15.1670000 2
19937 19941 19939 19940 4 180.0000771 4.6024000 2
19939 19941 19943 19944 1 180.0000771 15.1670000 2
19939 19941 19943 19945 1 180.0000771 15.1670000 2
19942 19941 19943 19944 1 180.0000771 15.1670000 2
19942 19941 19943 19945 1 180.0000771 15.1670000 2
19939 19943 19941 19942 4 180.0000771 4.6024000 2
19936 19943 19945 19946 4 180.0000771 4.6024000 2
19941 19943 19945 19946 1 180.0000771 15.1670000 2
19944 19943 19945 19946 1 180.0000771 15.1670000 2
19936 19945 19943 19941 1 180.0000771 15.1670000 2
19936 19945 19943 19944 1 180.0000771 15.1670000 2
19941 19945 19943 19944 4 180.0000771 4.6024000 2
19947 19948 19949 19950 1 180.0000771 15.1670000 2
19947 19948 19949 19951 1 180.0000771 15.1670000 2
19950 19948 19949 19951 4 180.0000771 4.6024000 2
19947 19948 19957 19949 4 180.0000771 4.6024000 2
19947 19948 19957 19955 1 180.0000771 15.1670000 2
19947 19948 19957 19958 1 180.0000771 15.1670000 2
19949 19948 19957 19955 1 180.0000771 15.1670000 2
19949 19948 19957 19958 1 180.0000771 15.1670000 2
19950 19949 19948 19957 1 180.0000771 15.1670000 2
19951 19949 19948 19957 1 180.0000771 15.1670000 2
19948 19949 19951 19952 1 180.0000771 15.1670000 2
19948 19949 19951 19953 1 180.0000771 15.1670000 2
19950 19949 19951 19952 1 180.0000771 15.1670000 2
19950 19949 19951 19953 1 180.0000771 15.1670000 2
19949 19951 19953 19954 1 180.0000771 15.1670000 2
19949 19951 19953 19955 1 180.0000771 15.1670000 2
19952 19951 19953 19954 1 180.0000771 15.1670000 2
19952 19951 19953 19955 1 180.0000771 15.1670000 2
19949 19953 19951 19952 4 180.0000771 4.6024000 2
19951 19953 19955 19956 1 180.0000771 15.1670000 2
19951 19953 19955 19957 1 180.0000771 15.1670000 2
19954 19953 19955 19956 1 180.0000771 15.1670000 2
19954 19953 19955 19957 1 180.0000771 15.1670000 2
19951 19955 19953 19954 4 180.0000771 4.6024000 2
19948 19955 19957 19958 4 180.0000771 4.6024000 2
19953 19955 19957 19958 1 180.0000771 15.1670000 2
19956 19955 19957 19958 1 180.0000771 15.1670000 2
19948 19957 19955 19953 1 180.0000771 15.1670000 2
19948 19957 19955 19956 1 180.0000771 15.1670000 2
19953 19957 19955 19956 4 180.0000771 4.6024000 2
19959 19960 19961 19962 1 180.0000771 15.1670000 2
19959 19960 19961 19963 1 180.0000771 15.1670000 2
19962 19960 19961 19963 4 180.0000771 4.6024000 2
19959 19960 19969 19961 4 180.0000771 4.6024000 2
19959 19960 19969 19967 1 180.0000771 15.1670000 2
19959 19960 19969 19970 1 180.0000771 15.1670000 2
19961 19960 19969 19967 1 180.0000771 15.1670000 2
19961 19960 19969 19970 1 180.0000771 15.1670000 2
19962 19961 19960 19969 1 180.0000771 15.1670000 2
19963 19961 19960 19969 1 180.0000771 15.1670000 2
19960 19961 19963 19964 1 180.0000771 15.1670000 2
19960 19961 19963 19965 1 180.0000771 15.1670000 2
19962 19961 19963 19964 1 180.0000771 15.1670000 2
19962 19961 19963 19965 1 180.0000771 15.1670000 2
19961 19963 19965 19966 1 180.0000771 15.1670000 2
19961 19963 19965 19967 1 180.0000771 15.1670000 2
19964 19963 19965 19966 1 180.0000771 15.1670000 2
19964 19963 19965 19967 1 180.0000771 15.1670000 2
19961 19965 19963 19964 4 180.0000771 4.6024000 2
19963 19965 19967 19968 1 180.0000771 15.1670000 2
19963 19965 19967 19969 1 180.0000771 15.1670000 2
19966 19965 19967 19968 1 180.0000771 15.1670000 2
19966 19965 19967 19969 1 180.0000771 15.1670000 2
19963 19967 19965 19966 4 180.0000771 4.6024000 2
19960 19967 19969 19970 4 180.0000771 4.6024000 2
19965 19967 19969 19970 1 180.0000771 15.1670000 2
19968 19967 19969 19970 1 180.0000771 15.1670000 2
19960 19969 19967 19965 1 180.0000771 15.1670000 2
19960 19969 19967 19968 1 180.0000771 15.1670000 2
19965 19969 19967 19968 4 180.0000771 4.6024000 2
19971 19972 19973 19974 1 180.0000771 15.1670000 2
19971 19972 19973 19975 1 180.0000771 15.1670000 2
19974 19972 19973 19975 4 180.0000771 4.6024000 2
19971 19972 19981 19973 4 180.0000771 4.6024000 2
19971 19972 19981 19979 1 180.0000771 15.1670000 2
19971 19972 19981 19982 1 180.0000771 15.1670000 2
19973 19972 19981 19979 1 180.0000771 15.1670000 2
19973 19972 19981 19982 1 180.0000771 15.1670000 2
19974 19973 19972 19981 1 180.0000771 15.1670000 2
19975 19973 19972 19981 1 180.0000771 15.1670000 2
19972 19973 19975 19976 1 180.0000771 15.1670000 2
19972 19973 19975 19977 1 180.0000771 15.1670000 2
19974 19973 19975 19976 1 180.0000771 15.1670000 2
19974 19973 19975 19977 1 180.0000771 15.1670000 2
19973 19975 19977 19978 1 180.0000771 15.1670000 2
19973 19975 19977 19979 1 180.0000771 15.1670000 2
19976 19975 19977 19978 1 180.0000771 15.1670000 2
19976 19975 19977 19979 1 180.0000771 15.1670000 2
19973 19977 19975 19976 4 180.0000771 4.6024000 2
19975 19977 19979 19980 1 180.0000771 15.1670000 2
19975 19977 19979 19981 1 180.0000771 15.1670000 2
19978 19977 19979 19980 1 180.0000771 15.1670000 2
19978 19977 19979 19981 1 180.0000771 15.1670000 2
19975 19979 19977 19978 4 180.0000771 4.6024000 2
19972 19979 19981 19982 4 180.0000771 4.6024000 2
19977 19979 19981 19982 1 180.0000771 15.1670000 2
19980 19979 19981 19982 1 180.0000771 15.1670000 2
19972 19981 19979 19977 1 180.0000771 15.1670000 2
19972 19981 19979 19980 1 180.0000771 15.1670000 2
19977 19981 19979 19980 4 180.0000771 4.6024000 2
19983 19984 19985 19986 1 180.0000771 15.1670000 2
19983 19984 19985 19987 1 180.0000771 15.1670000 2
19986 19984 19985 19987 4 180.0000771 4.6024000 2
19983 19984 19993 19985 4 180.0000771 4.6024000 2
19983 19984 19993 19991 1 180.0000771 15.1670000 2
19983 19984 19993 19994 1 180.0000771 15.1670000 2
19985 19984 19993 19991 1 180.0000771 15.1670000 2
19985 19984 19993 19994 1 180.0000771 15.1670000 2
19986 19985 19984 19993 1 180.0000771 15.1670000 2
19987 19985 19984 19993 1 180.0000771 15.1670000 2
19984 19985 19987 19988 1 180.0000771 15.1670000 2
19984 19985 19987 19989 1 180.0000771 15.1670000 2
19986 19985 19987 19988 1 180.0000771 15.1670000 2
19986 19985 19987 19989 1 180.0000771 15.1670000 2
19985 19987 19989 19990 1 180.0000771 15.1670000 2
19985 19987 19989 19991 1 180.0000771 15.1670000 2
19988 19987 19989 19990 1 180.0000771 15.1670000 2
19988 19987 19989 19991 1 180.0000771 15.1670000 2
19985 19989 19987 19988 4 180.0000771 4.6024000 2
19987 19989 19991 19992 1 180.0000771 15.1670000 2
19987 19989 19991 19993 1 180.0000771 15.1670000 2
19990 19989 19991 19992 1 180.0000771 15.1670000 2
19990 19989 19991 19993 1 180.0000771 15.1670000 2
19987 19991 19989 19990 4 180.0000771 4.6024000 2
19984 19991 19993 19994 4 180.0000771 4.6024000 2
19989 19991 19993 19994 1 180.0000771 15.1670000 2
19992 19991 19993 19994 1 180.0000771 15.1670000 2
19984 19993 19991 19989 1 180.0000771 15.1670000 2
19984 19993 19991 19992 1 180.0000771 15.1670000 2
19989 19993 19991 19992 4 180.0000771 4.6024000 2
19995 19996 19997 19998 1 180.0000771 15.1670000 2
19995 19996 19997 19999 1 180.0000771 15.1670000 2
19998 19996 19997 19999 4 180.0000771 4.6024000 2
19995 19996 20005 19997 4 180.0000771 4.6024000 2
19995 19996 20005 20003 1 180.0000771 15.1670000 2
19995 19996 20005 20006 1 180.0000771 15.1670000 2
19997 19996 20005 20003 1 180.0000771 15.1670000 2
19997 19996 20005 20006 1 180.0000771 15.1670000 2
19998 19997 19996 20005 1 180.0000771 15.1670000 2
19999 19997 19996 20005 1 180.0000771 15.1670000 2
19996 19997 19999 20000 1 180.0000771 15.1670000 2
19996 19997 19999 20001 1 180.0000771 15.1670000 2
19998 19997 19999 20000 1 180.0000771 15.1670000 2
19998 19997 19999 20001 1 180.0000771 15.1670000 2
19997 19999 20001 20002 1 180.0000771 15.1670000 2
19997 19999 20001 20003 1 180.0000771 15.1670000 2
20000 19999 20001 20002 1 180.0000771 15.1670000 2
20000 19999 20001 20003 1 180.0000771 15.1670000 2
19997 20001 19999 20000 4 180.0000771 4.6024000 2
19999 20001 20003 20004 1 180.0000771 15.1670000 2
19999 20001 20003 20005 1 180.0000771 15.1670000 2
20002 20001 20003 20004 1 180.0000771 15.1670000 2
20002 20001 20003 20005 1 180.0000771 15.1670000 2
19999 20003 20001 20002 4 180.0000771 4.6024000 2
19996 20003 20005 20006 4 180.0000771 4.6024000 2
20001 20003 20005 20006 1 180.0000771 15.1670000 2
20004 20003 20005 20006 1 180.0000771 15.1670000 2
19996 20005 20003 20001 1 180.0000771 15.1670000 2
19996 20005 20003 20004 1 180.0000771 15.1670000 2
20001 20005 20003 20004 4 180.0000771 4.6024000 2
20007 20008 20009 20010 1 180.0000771 15.1670000 2
20007 20008 20009 20011 1 180.0000771 15.1670000 2
20010 20008 20009 20011 4 180.0000771 4.6024000 2
20007 20008 20017 20009 4 180.0000771 4.6024000 2
20007 20008 20017 20015 1 180.0000771 15.1670000 2
20007 20008 20017 20018 1 180.0000771 15.1670000 2
20009 20008 20017 20015 1 180.0000771 15.1670000 2
20009 20008 20017 20018 1 180.0000771 15.1670000 2
20010 20009 20008 20017 1 180.0000771 15.1670000 2
20011 20009 20008 20017 1 180.0000771 15.1670000 2
20008 20009 20011 20012 1 180.0000771 15.1670000 2
20008 20009 20011 20013 1 180.0000771 15.1670000 2
20010 20009 20011 20012 1 180.0000771 15.1670000 2
20010 20009 20011 20013 1 180.0000771 15.1670000 2
20009 20011 20013 20014 1 180.0000771 15.1670000 2
20009 20011 20013 20015 1 180.0000771 15.1670000 2
20012 20011 20013 20014 1 180.0000771 15.1670000 2
20012 20011 20013 20015 1 180.0000771 15.1670000 2
20009 20013 20011 20012 4 180.0000771 4.6024000 2
20011 20013 20015 20016 1 180.0000771 15.1670000 2
20011 20013 20015 20017 1 180.0000771 15.1670000 2
20014 20013 20015 20016 1 180.0000771 15.1670000 2
20014 20013 20015 20017 1 180.0000771 15.1670000 2
20011 20015 20013 20014 4 180.0000771 4.6024000 2
20008 20015 20017 20018 4 180.0000771 4.6024000 2
20013 20015 20017 20018 1 180.0000771 15.1670000 2
20016 20015 20017 20018 1 180.0000771 15.1670000 2
20008 20017 20015 20013 1 180.0000771 15.1670000 2
20008 20017 20015 20016 1 180.0000771 15.1670000 2
20013 20017 20015 20016 4 180.0000771 4.6024000 2
20019 20020 20021 20022 1 180.0000771 15.1670000 2
20019 20020 20021 20023 1 180.0000771 15.1670000 2
20022 20020 20021 20023 4 180.0000771 4.6024000 2
20019 20020 20029 20021 4 180.0000771 4.6024000 2
20019 20020 20029 20027 1 180.0000771 15.1670000 2
20019 20020 20029 20030 1 180.0000771 15.1670000 2
20021 20020 20029 20027 1 180.0000771 15.1670000 2
20021 20020 20029 20030 1 180.0000771 15.1670000 2
20022 20021 20020 20029 1 180.0000771 15.1670000 2
20023 20021 20020 20029 1 180.0000771 15.1670000 2
20020 20021 20023 20024 1 180.0000771 15.1670000 2
20020 20021 20023 20025 1 180.0000771 15.1670000 2
20022 20021 20023 20024 1 180.0000771 15.1670000 2
20022 20021 20023 20025 1 180.0000771 15.1670000 2
20021 20023 20025 20026 1 180.0000771 15.1670000 2
20021 20023 20025 20027 1 180.0000771 15.1670000 2
20024 20023 20025 20026 1 180.0000771 15.1670000 2
20024 20023 20025 20027 1 180.0000771 15.1670000 2
20021 20025 20023 20024 4 180.0000771 4.6024000 2
20023 20025 20027 20028 1 180.0000771 15.1670000 2
20023 20025 20027 20029 1 180.0000771 15.1670000 2
20026 20025 20027 20028 1 180.0000771 15.1670000 2
20026 20025 20027 20029 1 180.0000771 15.1670000 2
20023 20027 20025 20026 4 180.0000771 4.6024000 2
20020 20027 20029 20030 4 180.0000771 4.6024000 2
20025 20027 20029 20030 1 180.0000771 15.1670000 2
20028 20027 20029 20030 1 180.0000771 15.1670000 2
20020 20029 20027 20025 1 180.0000771 15.1670000 2
20020 20029 20027 20028 1 180.0000771 15.1670000 2
20025 20029 20027 20028 4 180.0000771 4.6024000 2
20031 20032 20033 20034 1 180.0000771 15.1670000 2
20031 20032 20033 20035 1 180.0000771 15.1670000 2
20034 20032 20033 20035 4 180.0000771 4.6024000 2
20031 20032 20041 20033 4 180.0000771 4.6024000 2
20031 20032 20041 20039 1 180.0000771 15.1670000 2
20031 20032 20041 20042 1 180.0000771 15.1670000 2
20033 20032 20041 20039 1 180.0000771 15.1670000 2
20033 20032 20041 20042 1 180.0000771 15.1670000 2
20034 20033 20032 20041 1 180.0000771 15.1670000 2
20035 20033 20032 20041 1 180.0000771 15.1670000 2
20032 20033 20035 20036 1 180.0000771 15.1670000 2
20032 20033 20035 20037 1 180.0000771 15.1670000 2
20034 20033 20035 20036 1 180.0000771 15.1670000 2
20034 20033 20035 20037 1 180.0000771 15.1670000 2
20033 20035 20037 20038 1 180.0000771 15.1670000 2
20033 20035 20037 20039 1 180.0000771 15.1670000 2
20036 20035 20037 20038 1 180.0000771 15.1670000 2
20036 20035 20037 20039 1 180.0000771 15.1670000 2
20033 20037 20035 20036 4 180.0000771 4.6024000 2
20035 20037 20039 20040 1 180.0000771 15.1670000 2
20035 20037 20039 20041 1 180.0000771 15.1670000 2
20038 20037 20039 20040 1 180.0000771 15.1670000 2
20038 20037 20039 20041 1 180.0000771 15.1670000 2
20035 20039 20037 20038 4 180.0000771 4.6024000 2
20032 20039 20041 20042 4 180.0000771 4.6024000 2
20037 20039 20041 20042 1 180.0000771 15.1670000 2
20040 20039 20041 20042 1 180.0000771 15.1670000 2
20032 20041 20039 20037 1 180.0000771 15.1670000 2
20032 20041 20039 20040 1 180.0000771 15.1670000 2
20037 20041 20039 20040 4 180.0000771 4.6024000 2
20043 20044 20045 20046 1 180.0000771 15.1670000 2
20043 20044 20045 20047 1 180.0000771 15.1670000 2
20046 20044 20045 20047 4 180.0000771 4.6024000 2
20043 20044 20053 20045 4 180.0000771 4.6024000 2
20043 20044 20053 20051 1 180.0000771 15.1670000 2
20043 20044 20053 20054 1 180.0000771 15.1670000 2
20045 20044 20053 20051 1 180.0000771 15.1670000 2
20045 20044 20053 20054 1 180.0000771 15.1670000 2
20046 20045 20044 20053 1 180.0000771 15.1670000 2
20047 20045 20044 20053 1 180.0000771 15.1670000 2
20044 20045 20047 20048 1 180.0000771 15.1670000 2
20044 20045 20047 20049 1 180.0000771 15.1670000 2
20046 20045 20047 20048 1 180.0000771 15.1670000 2
20046 20045 20047 20049 1 180.0000771 15.1670000 2
20045 20047 20049 20050 1 180.0000771 15.1670000 2
20045 20047 20049 20051 1 180.0000771 15.1670000 2
20048 20047 20049 20050 1 180.0000771 15.1670000 2
20048 20047 20049 20051 1 180.0000771 15.1670000 2
20045 20049 20047 20048 4 180.0000771 4.6024000 2
20047 20049 20051 20052 1 180.0000771 15.1670000 2
20047 20049 20051 20053 1 180.0000771 15.1670000 2
20050 20049 20051 20052 1 180.0000771 15.1670000 2
20050 20049 20051 20053 1 180.0000771 15.1670000 2
20047 20051 20049 20050 4 180.0000771 4.6024000 2
20044 20051 20053 20054 4 180.0000771 4.6024000 2
20049 20051 20053 20054 1 180.0000771 15.1670000 2
20052 20051 20053 20054 1 180.0000771 15.1670000 2
20044 20053 20051 20049 1 180.0000771 15.1670000 2
20044 20053 20051 20052 1 180.0000771 15.1670000 2
20049 20053 20051 20052 4 180.0000771 4.6024000 2
20055 20056 20057 20058 1 180.0000771 15.1670000 2
20055 20056 20057 20059 1 180.0000771 15.1670000 2
20058 20056 20057 20059 4 180.0000771 4.6024000 2
20055 20056 20065 20057 4 180.0000771 4.6024000 2
20055 20056 20065 20063 1 180.0000771 15.1670000 2
20055 20056 20065 20066 1 180.0000771 15.1670000 2
20057 20056 20065 20063 1 180.0000771 15.1670000 2
20057 20056 20065 20066 1 180.0000771 15.1670000 2
20058 20057 20056 20065 1 180.0000771 15.1670000 2
20059 20057 20056 20065 1 180.0000771 15.1670000 2
20056 20057 20059 20060 1 180.0000771 15.1670000 2
20056 20057 20059 20061 1 180.0000771 15.1670000 2
20058 20057 20059 20060 1 180.0000771 15.1670000 2
20058 20057 20059 20061 1 180.0000771 15.1670000 2
20057 20059 20061 20062 1 180.0000771 15.1670000 2
20057 20059 20061 20063 1 180.0000771 15.1670000 2
20060 20059 20061 20062 1 180.0000771 15.1670000 2
20060 20059 20061 20063 1 180.0000771 15.1670000 2
20057 20061 20059 20060 4 180.0000771 4.6024000 2
20059 20061 20063 20064 1 180.0000771 15.1670000 2
20059 20061 20063 20065 1 180.0000771 15.1670000 2
20062 20061 20063 20064 1 180.0000771 15.1670000 2
20062 20061 20063 20065 1 180.0000771 15.1670000 2
20059 20063 20061 20062 4 180.0000771 4.6024000 2
20056 20063 20065 20066 4 180.0000771 4.6024000 2
20061 20063 20065 20066 1 180.0000771 15.1670000 2
20064 20063 20065 20066 1 180.0000771 15.1670000 2
20056 20065 20063 20061 1 180.0000771 15.1670000 2
20056 20065 20063 20064 1 180.0000771 15.1670000 2
20061 20065 20063 20064 4 180.0000771 4.6024000 2
20067 20068 20069 20070 1 180.0000771 15.1670000 2
20067 20068 20069 20071 1 180.0000771 15.1670000 2
20070 20068 20069 20071 4 180.0000771 4.6024000 2
20067 20068 20077 20069 4 180.0000771 4.6024000 2
20067 20068 20077 20075 1 180.0000771 15.1670000 2
20067 20068 20077 20078 1 180.0000771 15.1670000 2
20069 20068 20077 20075 1 180.0000771 15.1670000 2
20069 20068 20077 20078 1 180.0000771 15.1670000 2
20070 20069 20068 20077 1 180.0000771 15.1670000 2
20071 20069 20068 20077 1 180.0000771 15.1670000 2
20068 20069 20071 20072 1 180.0000771 15.1670000 2
20068 20069 20071 20073 1 180.0000771 15.1670000 2
20070 20069 20071 20072 1 180.0000771 15.1670000 2
20070 20069 20071 20073 1 180.0000771 15.1670000 2
20069 20071 20073 20074 1 180.0000771 15.1670000 2
20069 20071 20073 20075 1 180.0000771 15.1670000 2
20072 20071 20073 20074 1 180.0000771 15.1670000 2
20072 20071 20073 20075 1 180.0000771 15.1670000 2
20069 20073 20071 20072 4 180.0000771 4.6024000 2
20071 20073 20075 20076 1 180.0000771 15.1670000 2
20071 20073 20075 20077 1 180.0000771 15.1670000 2
20074 20073 20075 20076 1 180.0000771 15.1670000 2
20074 20073 20075 20077 1 180.0000771 15.1670000 2
20071 20075 20073 20074 4 180.0000771 4.6024000 2
20068 20075 20077 20078 4 180.0000771 4.6024000 2
20073 20075 20077 20078 1 180.0000771 15.1670000 2
20076 20075 20077 20078 1 180.0000771 15.1670000 2
20068 20077 20075 20073 1 180.0000771 15.1670000 2
20068 20077 20075 20076 1 180.0000771 15.1670000 2
20073 20077 20075 20076 4 180.0000771 4.6024000 2
20079 20080 20081 20082 1 180.0000771 15.1670000 2
20079 20080 20081 20083 1 180.0000771 15.1670000 2
20082 20080 20081 20083 4 180.0000771 4.6024000 2
20079 20080 20089 20081 4 180.0000771 4.6024000 2
20079 20080 20089 20087 1 180.0000771 15.1670000 2
20079 20080 20089 20090 1 180.0000771 15.1670000 2
20081 20080 20089 20087 1 180.0000771 15.1670000 2
20081 20080 20089 20090 1 180.0000771 15.1670000 2
20082 20081 20080 20089 1 180.0000771 15.1670000 2
20083 20081 20080 20089 1 180.0000771 15.1670000 2
20080 20081 20083 20084 1 180.0000771 15.1670000 2
20080 20081 20083 20085 1 180.0000771 15.1670000 2
20082 20081 20083 20084 1 180.0000771 15.1670000 2
20082 20081 20083 20085 1 180.0000771 15.1670000 2
20081 20083 20085 20086 1 180.0000771 15.1670000 2
20081 20083 20085 20087 1 180.0000771 15.1670000 2
20084 20083 20085 20086 1 180.0000771 15.1670000 2
20084 20083 20085 20087 1 180.0000771 15.1670000 2
20081 20085 20083 20084 4 180.0000771 4.6024000 2
20083 20085 20087 20088 1 180.0000771 15.1670000 2
20083 20085 20087 20089 1 180.0000771 15.1670000 2
20086 20085 20087 20088 1 180.0000771 15.1670000 2
20086 20085 20087 20089 1 180.0000771 15.1670000 2
20083 20087 20085 20086 4 180.0000771 4.6024000 2
20080 20087 20089 20090 4 180.0000771 4.6024000 2
20085 20087 20089 20090 1 180.0000771 15.1670000 2
20088 20087 20089 20090 1 180.0000771 15.1670000 2
20080 20089 20087 20085 1 180.0000771 15.1670000 2
20080 20089 20087 20088 1 180.0000771 15.1670000 2
20085 20089 20087 20088 4 180.0000771 4.6024000 2
20091 20092 20093 20094 1 180.0000771 15.1670000 2
20091 20092 20093 20095 1 180.0000771 15.1670000 2
20094 20092 20093 20095 4 180.0000771 4.6024000 2
20091 20092 20101 20093 4 180.0000771 4.6024000 2
20091 20092 20101 20099 1 180.0000771 15.1670000 2
20091 20092 20101 20102 1 180.0000771 15.1670000 2
20093 20092 20101 20099 1 180.0000771 15.1670000 2
20093 20092 20101 20102 1 180.0000771 15.1670000 2
20094 20093 20092 20101 1 180.0000771 15.1670000 2
20095 20093 20092 20101 1 180.0000771 15.1670000 2
20092 20093 20095 20096 1 180.0000771 15.1670000 2
20092 20093 20095 20097 1 180.0000771 15.1670000 2
20094 20093 20095 20096 1 180.0000771 15.1670000 2
20094 20093 20095 20097 1 180.0000771 15.1670000 2
20093 20095 20097 20098 1 180.0000771 15.1670000 2
20093 20095 20097 20099 1 180.0000771 15.1670000 2
20096 20095 20097 20098 1 180.0000771 15.1670000 2
20096 20095 20097 20099 1 180.0000771 15.1670000 2
20093 20097 20095 20096 4 180.0000771 4.6024000 2
20095 20097 20099 20100 1 180.0000771 15.1670000 2
20095 20097 20099 20101 1 180.0000771 15.1670000 2
20098 20097 20099 20100 1 180.0000771 15.1670000 2
20098 20097 20099 20101 1 180.0000771 15.1670000 2
20095 20099 20097 20098 4 180.0000771 4.6024000 2
20092 20099 20101 20102 4 180.0000771 4.6024000 2
20097 20099 20101 20102 1 180.0000771 15.1670000 2
20100 20099 20101 20102 1 180.0000771 15.1670000 2
20092 20101 20099 20097 1 180.0000771 15.1670000 2
20092 20101 20099 20100 1 180.0000771 15.1670000 2
20097 20101 20099 20100 4 180.0000771 4.6024000 2
20103 20104 20105 20106 1 180.0000771 15.1670000 2
20103 20104 20105 20107 1 180.0000771 15.1670000 2
20106 20104 20105 20107 4 180.0000771 4.6024000 2
20103 20104 20113 20105 4 180.0000771 4.6024000 2
20103 20104 20113 20111 1 180.0000771 15.1670000 2
20103 20104 20113 20114 1 180.0000771 15.1670000 2
20105 20104 20113 20111 1 180.0000771 15.1670000 2
20105 20104 20113 20114 1 180.0000771 15.1670000 2
20106 20105 20104 20113 1 180.0000771 15.1670000 2
20107 20105 20104 20113 1 180.0000771 15.1670000 2
20104 20105 20107 20108 1 180.0000771 15.1670000 2
20104 20105 20107 20109 1 180.0000771 15.1670000 2
20106 20105 20107 20108 1 180.0000771 15.1670000 2
20106 20105 20107 20109 1 180.0000771 15.1670000 2
20105 20107 20109 20110 1 180.0000771 15.1670000 2
20105 20107 20109 20111 1 180.0000771 15.1670000 2
20108 20107 20109 20110 1 180.0000771 15.1670000 2
20108 20107 20109 20111 1 180.0000771 15.1670000 2
20105 20109 20107 20108 4 180.0000771 4.6024000 2
20107 20109 20111 20112 1 180.0000771 15.1670000 2
20107 20109 20111 20113 1 180.0000771 15.1670000 2
20110 20109 20111 20112 1 180.0000771 15.1670000 2
20110 20109 20111 20113 1 180.0000771 15.1670000 2
20107 20111 20109 20110 4 180.0000771 4.6024000 2
20104 20111 20113 20114 4 180.0000771 4.6024000 2
20109 20111 20113 20114 1 180.0000771 15.1670000 2
20112 20111 20113 20114 1 180.0000771 15.1670000 2
20104 20113 20111 20109 1 180.0000771 15.1670000 2
20104 20113 20111 20112 1 180.0000771 15.1670000 2
20109 20113 20111 20112 4 180.0000771 4.6024000 2
20115 20116 20117 20118 1 180.0000771 15.1670000 2
20115 20116 20117 20119 1 180.0000771 15.1670000 2
20118 20116 20117 20119 4 180.0000771 4.6024000 2
20115 20116 20125 20117 4 180.0000771 4.6024000 2
20115 20116 20125 20123 1 180.0000771 15.1670000 2
20115 20116 20125 20126 1 180.0000771 15.1670000 2
20117 20116 20125 20123 1 180.0000771 15.1670000 2
20117 20116 20125 20126 1 180.0000771 15.1670000 2
20118 20117 20116 20125 1 180.0000771 15.1670000 2
20119 20117 20116 20125 1 180.0000771 15.1670000 2
20116 20117 20119 20120 1 180.0000771 15.1670000 2
20116 20117 20119 20121 1 180.0000771 15.1670000 2
20118 20117 20119 20120 1 180.0000771 15.1670000 2
20118 20117 20119 20121 1 180.0000771 15.1670000 2
20117 20119 20121 20122 1 180.0000771 15.1670000 2
20117 20119 20121 20123 1 180.0000771 15.1670000 2
20120 20119 20121 20122 1 180.0000771 15.1670000 2
20120 20119 20121 20123 1 180.0000771 15.1670000 2
20117 20121 20119 20120 4 180.0000771 4.6024000 2
20119 20121 20123 20124 1 180.0000771 15.1670000 2
20119 20121 20123 20125 1 180.0000771 15.1670000 2
20122 20121 20123 20124 1 180.0000771 15.1670000 2
20122 20121 20123 20125 1 180.0000771 15.1670000 2
20119 20123 20121 20122 4 180.0000771 4.6024000 2
20116 20123 20125 20126 4 180.0000771 4.6024000 2
20121 20123 20125 20126 1 180.0000771 15.1670000 2
20124 20123 20125 20126 1 180.0000771 15.1670000 2
20116 20125 20123 20121 1 180.0000771 15.1670000 2
20116 20125 20123 20124 1 180.0000771 15.1670000 2
20121 20125 20123 20124 4 180.0000771 4.6024000 2
20127 20128 20129 20130 1 180.0000771 15.1670000 2
20127 20128 20129 20131 1 180.0000771 15.1670000 2
20130 20128 20129 20131 4 180.0000771 4.6024000 2
20127 20128 20137 20129 4 180.0000771 4.6024000 2
20127 20128 20137 20135 1 180.0000771 15.1670000 2
20127 20128 20137 20138 1 180.0000771 15.1670000 2
20129 20128 20137 20135 1 180.0000771 15.1670000 2
20129 20128 20137 20138 1 180.0000771 15.1670000 2
20130 20129 20128 20137 1 180.0000771 15.1670000 2
20131 20129 20128 20137 1 180.0000771 15.1670000 2
20128 20129 20131 20132 1 180.0000771 15.1670000 2
20128 20129 20131 20133 1 180.0000771 15.1670000 2
20130 20129 20131 20132 1 180.0000771 15.1670000 2
20130 20129 20131 20133 1 180.0000771 15.1670000 2
20129 20131 20133 20134 1 180.0000771 15.1670000 2
20129 20131 20133 20135 1 180.0000771 15.1670000 2
20132 20131 20133 20134 1 180.0000771 15.1670000 2
20132 20131 20133 20135 1 180.0000771 15.1670000 2
20129 20133 20131 20132 4 180.0000771 4.6024000 2
20131 20133 20135 20136 1 180.0000771 15.1670000 2
20131 20133 20135 20137 1 180.0000771 15.1670000 2
20134 20133 20135 20136 1 180.0000771 15.1670000 2
20134 20133 20135 20137 1 180.0000771 15.1670000 2
20131 20135 20133 20134 4 180.0000771 4.6024000 2
20128 20135 20137 20138 4 180.0000771 4.6024000 2
20133 20135 20137 20138 1 180.0000771 15.1670000 2
20136 20135 20137 20138 1 180.0000771 15.1670000 2
20128 20137 20135 20133 1 180.0000771 15.1670000 2
20128 20137 20135 20136 1 180.0000771 15.1670000 2
20133 20137 20135 20136 4 180.0000771 4.6024000 2
20139 20140 20141 20142 1 180.0000771 15.1670000 2
20139 20140 20141 20143 1 180.0000771 15.1670000 2
20142 20140 20141 20143 4 180.0000771 4.6024000 2
20139 20140 20149 20141 4 180.0000771 4.6024000 2
20139 20140 20149 20147 1 180.0000771 15.1670000 2
20139 20140 20149 20150 1 180.0000771 15.1670000 2
20141 20140 20149 20147 1 180.0000771 15.1670000 2
20141 20140 20149 20150 1 180.0000771 15.1670000 2
20142 20141 20140 20149 1 180.0000771 15.1670000 2
20143 20141 20140 20149 1 180.0000771 15.1670000 2
20140 20141 20143 20144 1 180.0000771 15.1670000 2
20140 20141 20143 20145 1 180.0000771 15.1670000 2
20142 20141 20143 20144 1 180.0000771 15.1670000 2
20142 20141 20143 20145 1 180.0000771 15.1670000 2
20141 20143 20145 20146 1 180.0000771 15.1670000 2
20141 20143 20145 20147 1 180.0000771 15.1670000 2
20144 20143 20145 20146 1 180.0000771 15.1670000 2
20144 20143 20145 20147 1 180.0000771 15.1670000 2
20141 20145 20143 20144 4 180.0000771 4.6024000 2
20143 20145 20147 20148 1 180.0000771 15.1670000 2
20143 20145 20147 20149 1 180.0000771 15.1670000 2
20146 20145 20147 20148 1 180.0000771 15.1670000 2
20146 20145 20147 20149 1 180.0000771 15.1670000 2
20143 20147 20145 20146 4 180.0000771 4.6024000 2
20140 20147 20149 20150 4 180.0000771 4.6024000 2
20145 20147 20149 20150 1 180.0000771 15.1670000 2
20148 20147 20149 20150 1 180.0000771 15.1670000 2
20140 20149 20147 20145 1 180.0000771 15.1670000 2
20140 20149 20147 20148 1 180.0000771 15.1670000 2
20145 20149 20147 20148 4 180.0000771 4.6024000 2
20151 20152 20153 20154 1 180.0000771 15.1670000 2
20151 20152 20153 20155 1 180.0000771 15.1670000 2
20154 20152 20153 20155 4 180.0000771 4.6024000 2
20151 20152 20161 20153 4 180.0000771 4.6024000 2
20151 20152 20161 20159 1 180.0000771 15.1670000 2
20151 20152 20161 20162 1 180.0000771 15.1670000 2
20153 20152 20161 20159 1 180.0000771 15.1670000 2
20153 20152 20161 20162 1 180.0000771 15.1670000 2
20154 20153 20152 20161 1 180.0000771 15.1670000 2
20155 20153 20152 20161 1 180.0000771 15.1670000 2
20152 20153 20155 20156 1 180.0000771 15.1670000 2
20152 20153 20155 20157 1 180.0000771 15.1670000 2
20154 20153 20155 20156 1 180.0000771 15.1670000 2
20154 20153 20155 20157 1 180.0000771 15.1670000 2
20153 20155 20157 20158 1 180.0000771 15.1670000 2
20153 20155 20157 20159 1 180.0000771 15.1670000 2
20156 20155 20157 20158 1 180.0000771 15.1670000 2
20156 20155 20157 20159 1 180.0000771 15.1670000 2
20153 20157 20155 20156 4 180.0000771 4.6024000 2
20155 20157 20159 20160 1 180.0000771 15.1670000 2
20155 20157 20159 20161 1 180.0000771 15.1670000 2
20158 20157 20159 20160 1 180.0000771 15.1670000 2
20158 20157 20159 20161 1 180.0000771 15.1670000 2
20155 20159 20157 20158 4 180.0000771 4.6024000 2
20152 20159 20161 20162 4 180.0000771 4.6024000 2
20157 20159 20161 20162 1 180.0000771 15.1670000 2
20160 20159 20161 20162 1 180.0000771 15.1670000 2
20152 20161 20159 20157 1 180.0000771 15.1670000 2
20152 20161 20159 20160 1 180.0000771 15.1670000 2
20157 20161 20159 20160 4 180.0000771 4.6024000 2
20163 20164 20165 20166 1 180.0000771 15.1670000 2
20163 20164 20165 20167 1 180.0000771 15.1670000 2
20166 20164 20165 20167 4 180.0000771 4.6024000 2
20163 20164 20173 20165 4 180.0000771 4.6024000 2
20163 20164 20173 20171 1 180.0000771 15.1670000 2
20163 20164 20173 20174 1 180.0000771 15.1670000 2
20165 20164 20173 20171 1 180.0000771 15.1670000 2
20165 20164 20173 20174 1 180.0000771 15.1670000 2
20166 20165 20164 20173 1 180.0000771 15.1670000 2
20167 20165 20164 20173 1 180.0000771 15.1670000 2
20164 20165 20167 20168 1 180.0000771 15.1670000 2
20164 20165 20167 20169 1 180.0000771 15.1670000 2
20166 20165 20167 20168 1 180.0000771 15.1670000 2
20166 20165 20167 20169 1 180.0000771 15.1670000 2
20165 20167 20169 20170 1 180.0000771 15.1670000 2
20165 20167 20169 20171 1 180.0000771 15.1670000 2
20168 20167 20169 20170 1 180.0000771 15.1670000 2
20168 20167 20169 20171 1 180.0000771 15.1670000 2
20165 20169 20167 20168 4 180.0000771 4.6024000 2
20167 20169 20171 20172 1 180.0000771 15.1670000 2
20167 20169 20171 20173 1 180.0000771 15.1670000 2
20170 20169 20171 20172 1 180.0000771 15.1670000 2
20170 20169 20171 20173 1 180.0000771 15.1670000 2
20167 20171 20169 20170 4 180.0000771 4.6024000 2
20164 20171 20173 20174 4 180.0000771 4.6024000 2
20169 20171 20173 20174 1 180.0000771 15.1670000 2
20172 20171 20173 20174 1 180.0000771 15.1670000 2
20164 20173 20171 20169 1 180.0000771 15.1670000 2
20164 20173 20171 20172 1 180.0000771 15.1670000 2
20169 20173 20171 20172 4 180.0000771 4.6024000 2
20175 20176 20177 20178 1 180.0000771 15.1670000 2
20175 20176 20177 20179 1 180.0000771 15.1670000 2
20178 20176 20177 20179 4 180.0000771 4.6024000 2
20175 20176 20185 20177 4 180.0000771 4.6024000 2
20175 20176 20185 20183 1 180.0000771 15.1670000 2
20175 20176 20185 20186 1 180.0000771 15.1670000 2
20177 20176 20185 20183 1 180.0000771 15.1670000 2
20177 20176 20185 20186 1 180.0000771 15.1670000 2
20178 20177 20176 20185 1 180.0000771 15.1670000 2
20179 20177 20176 20185 1 180.0000771 15.1670000 2
20176 20177 20179 20180 1 180.0000771 15.1670000 2
20176 20177 20179 20181 1 180.0000771 15.1670000 2
20178 20177 20179 20180 1 180.0000771 15.1670000 2
20178 20177 20179 20181 1 180.0000771 15.1670000 2
20177 20179 20181 20182 1 180.0000771 15.1670000 2
20177 20179 20181 20183 1 180.0000771 15.1670000 2
20180 20179 20181 20182 1 180.0000771 15.1670000 2
20180 20179 20181 20183 1 180.0000771 15.1670000 2
20177 20181 20179 20180 4 180.0000771 4.6024000 2
20179 20181 20183 20184 1 180.0000771 15.1670000 2
20179 20181 20183 20185 1 180.0000771 15.1670000 2
20182 20181 20183 20184 1 180.0000771 15.1670000 2
20182 20181 20183 20185 1 180.0000771 15.1670000 2
20179 20183 20181 20182 4 180.0000771 4.6024000 2
20176 20183 20185 20186 4 180.0000771 4.6024000 2
20181 20183 20185 20186 1 180.0000771 15.1670000 2
20184 20183 20185 20186 1 180.0000771 15.1670000 2
20176 20185 20183 20181 1 180.0000771 15.1670000 2
20176 20185 20183 20184 1 180.0000771 15.1670000 2
20181 20185 20183 20184 4 180.0000771 4.6024000 2
20187 20188 20189 20190 1 180.0000771 15.1670000 2
20187 20188 20189 20191 1 180.0000771 15.1670000 2
20190 20188 20189 20191 4 180.0000771 4.6024000 2
20187 20188 20197 20189 4 180.0000771 4.6024000 2
20187 20188 20197 20195 1 180.0000771 15.1670000 2
20187 20188 20197 20198 1 180.0000771 15.1670000 2
20189 20188 20197 20195 1 180.0000771 15.1670000 2
20189 20188 20197 20198 1 180.0000771 15.1670000 2
20190 20189 20188 20197 1 180.0000771 15.1670000 2
20191 20189 20188 20197 1 180.0000771 15.1670000 2
20188 20189 20191 20192 1 180.0000771 15.1670000 2
20188 20189 20191 20193 1 180.0000771 15.1670000 2
20190 20189 20191 20192 1 180.0000771 15.1670000 2
20190 20189 20191 20193 1 180.0000771 15.1670000 2
20189 20191 20193 20194 1 180.0000771 15.1670000 2
20189 20191 20193 20195 1 180.0000771 15.1670000 2
20192 20191 20193 20194 1 180.0000771 15.1670000 2
20192 20191 20193 20195 1 180.0000771 15.1670000 2
20189 20193 20191 20192 4 180.0000771 4.6024000 2
20191 20193 20195 20196 1 180.0000771 15.1670000 2
20191 20193 20195 20197 1 180.0000771 15.1670000 2
20194 20193 20195 20196 1 180.0000771 15.1670000 2
20194 20193 20195 20197 1 180.0000771 15.1670000 2
20191 20195 20193 20194 4 180.0000771 4.6024000 2
20188 20195 20197 20198 4 180.0000771 4.6024000 2
20193 20195 20197 20198 1 180.0000771 15.1670000 2
20196 20195 20197 20198 1 180.0000771 15.1670000 2
20188 20197 20195 20193 1 180.0000771 15.1670000 2
20188 20197 20195 20196 1 180.0000771 15.1670000 2
20193 20197 20195 20196 4 180.0000771 4.6024000 2
20199 20200 20201 20202 1 180.0000771 15.1670000 2
20199 20200 20201 20203 1 180.0000771 15.1670000 2
20202 20200 20201 20203 4 180.0000771 4.6024000 2
20199 20200 20209 20201 4 180.0000771 4.6024000 2
20199 20200 20209 20207 1 180.0000771 15.1670000 2
20199 20200 20209 20210 1 180.0000771 15.1670000 2
20201 20200 20209 20207 1 180.0000771 15.1670000 2
20201 20200 20209 20210 1 180.0000771 15.1670000 2
20202 20201 20200 20209 1 180.0000771 15.1670000 2
20203 20201 20200 20209 1 180.0000771 15.1670000 2
20200 20201 20203 20204 1 180.0000771 15.1670000 2
20200 20201 20203 20205 1 180.0000771 15.1670000 2
20202 20201 20203 20204 1 180.0000771 15.1670000 2
20202 20201 20203 20205 1 180.0000771 15.1670000 2
20201 20203 20205 20206 1 180.0000771 15.1670000 2
20201 20203 20205 20207 1 180.0000771 15.1670000 2
20204 20203 20205 20206 1 180.0000771 15.1670000 2
20204 20203 20205 20207 1 180.0000771 15.1670000 2
20201 20205 20203 20204 4 180.0000771 4.6024000 2
20203 20205 20207 20208 1 180.0000771 15.1670000 2
20203 20205 20207 20209 1 180.0000771 15.1670000 2
20206 20205 20207 20208 1 180.0000771 15.1670000 2
20206 20205 20207 20209 1 180.0000771 15.1670000 2
20203 20207 20205 20206 4 180.0000771 4.6024000 2
20200 20207 20209 20210 4 180.0000771 4.6024000 2
20205 20207 20209 20210 1 180.0000771 15.1670000 2
20208 20207 20209 20210 1 180.0000771 15.1670000 2
20200 20209 20207 20205 1 180.0000771 15.1670000 2
20200 20209 20207 20208 1 180.0000771 15.1670000 2
20205 20209 20207 20208 4 180.0000771 4.6024000 2
20211 20212 20213 20214 1 180.0000771 15.1670000 2
20211 20212 20213 20215 1 180.0000771 15.1670000 2
20214 20212 20213 20215 4 180.0000771 4.6024000 2
20211 20212 20221 20213 4 180.0000771 4.6024000 2
20211 20212 20221 20219 1 180.0000771 15.1670000 2
20211 20212 20221 20222 1 180.0000771 15.1670000 2
20213 20212 20221 20219 1 180.0000771 15.1670000 2
20213 20212 20221 20222 1 180.0000771 15.1670000 2
20214 20213 20212 20221 1 180.0000771 15.1670000 2
20215 20213 20212 20221 1 180.0000771 15.1670000 2
20212 20213 20215 20216 1 180.0000771 15.1670000 2
20212 20213 20215 20217 1 180.0000771 15.1670000 2
20214 20213 20215 20216 1 180.0000771 15.1670000 2
20214 20213 20215 20217 1 180.0000771 15.1670000 2
20213 20215 20217 20218 1 180.0000771 15.1670000 2
20213 20215 20217 20219 1 180.0000771 15.1670000 2
20216 20215 20217 20218 1 180.0000771 15.1670000 2
20216 20215 20217 20219 1 180.0000771 15.1670000 2
20213 20217 20215 20216 4 180.0000771 4.6024000 2
20215 20217 20219 20220 1 180.0000771 15.1670000 2
20215 20217 20219 20221 1 180.0000771 15.1670000 2
20218 20217 20219 20220 1 180.0000771 15.1670000 2
20218 20217 20219 20221 1 180.0000771 15.1670000 2
20215 20219 20217 20218 4 180.0000771 4.6024000 2
20212 20219 20221 20222 4 180.0000771 4.6024000 2
20217 20219 20221 20222 1 180.0000771 15.1670000 2
20220 20219 20221 20222 1 180.0000771 15.1670000 2
20212 20221 20219 20217 1 180.0000771 15.1670000 2
20212 20221 20219 20220 1 180.0000771 15.1670000 2
20217 20221 20219 20220 4 180.0000771 4.6024000 2
20223 20224 20225 20226 1 180.0000771 15.1670000 2
20223 20224 20225 20227 1 180.0000771 15.1670000 2
20226 20224 20225 20227 4 180.0000771 4.6024000 2
20223 20224 20233 20225 4 180.0000771 4.6024000 2
20223 20224 20233 20231 1 180.0000771 15.1670000 2
20223 20224 20233 20234 1 180.0000771 15.1670000 2
20225 20224 20233 20231 1 180.0000771 15.1670000 2
20225 20224 20233 20234 1 180.0000771 15.1670000 2
20226 20225 20224 20233 1 180.0000771 15.1670000 2
20227 20225 20224 20233 1 180.0000771 15.1670000 2
20224 20225 20227 20228 1 180.0000771 15.1670000 2
20224 20225 20227 20229 1 180.0000771 15.1670000 2
20226 20225 20227 20228 1 180.0000771 15.1670000 2
20226 20225 20227 20229 1 180.0000771 15.1670000 2
20225 20227 20229 20230 1 180.0000771 15.1670000 2
20225 20227 20229 20231 1 180.0000771 15.1670000 2
20228 20227 20229 20230 1 180.0000771 15.1670000 2
20228 20227 20229 20231 1 180.0000771 15.1670000 2
20225 20229 20227 20228 4 180.0000771 4.6024000 2
20227 20229 20231 20232 1 180.0000771 15.1670000 2
20227 20229 20231 20233 1 180.0000771 15.1670000 2
20230 20229 20231 20232 1 180.0000771 15.1670000 2
20230 20229 20231 20233 1 180.0000771 15.1670000 2
20227 20231 20229 20230 4 180.0000771 4.6024000 2
20224 20231 20233 20234 4 180.0000771 4.6024000 2
20229 20231 20233 20234 1 180.0000771 15.1670000 2
20232 20231 20233 20234 1 180.0000771 15.1670000 2
20224 20233 20231 20229 1 180.0000771 15.1670000 2
20224 20233 20231 20232 1 180.0000771 15.1670000 2
20229 20233 20231 20232 4 180.0000771 4.6024000 2
20235 20236 20237 20238 1 180.0000771 15.1670000 2
20235 20236 20237 20239 1 180.0000771 15.1670000 2
20238 20236 20237 20239 4 180.0000771 4.6024000 2
20235 20236 20245 20237 4 180.0000771 4.6024000 2
20235 20236 20245 20243 1 180.0000771 15.1670000 2
20235 20236 20245 20246 1 180.0000771 15.1670000 2
20237 20236 20245 20243 1 180.0000771 15.1670000 2
20237 20236 20245 20246 1 180.0000771 15.1670000 2
20238 20237 20236 20245 1 180.0000771 15.1670000 2
20239 20237 20236 20245 1 180.0000771 15.1670000 2
20236 20237 20239 20240 1 180.0000771 15.1670000 2
20236 20237 20239 20241 1 180.0000771 15.1670000 2
20238 20237 20239 20240 1 180.0000771 15.1670000 2
20238 20237 20239 20241 1 180.0000771 15.1670000 2
20237 20239 20241 20242 1 180.0000771 15.1670000 2
20237 20239 20241 20243 1 180.0000771 15.1670000 2
20240 20239 20241 20242 1 180.0000771 15.1670000 2
20240 20239 20241 20243 1 180.0000771 15.1670000 2
20237 20241 20239 20240 4 180.0000771 4.6024000 2
20239 20241 20243 20244 1 180.0000771 15.1670000 2
20239 20241 20243 20245 1 180.0000771 15.1670000 2
20242 20241 20243 20244 1 180.0000771 15.1670000 2
20242 20241 20243 20245 1 180.0000771 15.1670000 2
20239 20243 20241 20242 4 180.0000771 4.6024000 2
20236 20243 20245 20246 4 180.0000771 4.6024000 2
20241 20243 20245 20246 1 180.0000771 15.1670000 2
20244 20243 20245 20246 1 180.0000771 15.1670000 2
20236 20245 20243 20241 1 180.0000771 15.1670000 2
20236 20245 20243 20244 1 180.0000771 15.1670000 2
20241 20245 20243 20244 4 180.0000771 4.6024000 2
20247 20248 20249 20250 1 180.0000771 15.1670000 2
20247 20248 20249 20251 1 180.0000771 15.1670000 2
20250 20248 20249 20251 4 180.0000771 4.6024000 2
20247 20248 20257 20249 4 180.0000771 4.6024000 2
20247 20248 20257 20255 1 180.0000771 15.1670000 2
20247 20248 20257 20258 1 180.0000771 15.1670000 2
20249 20248 20257 20255 1 180.0000771 15.1670000 2
20249 20248 20257 20258 1 180.0000771 15.1670000 2
20250 20249 20248 20257 1 180.0000771 15.1670000 2
20251 20249 20248 20257 1 180.0000771 15.1670000 2
20248 20249 20251 20252 1 180.0000771 15.1670000 2
20248 20249 20251 20253 1 180.0000771 15.1670000 2
20250 20249 20251 20252 1 180.0000771 15.1670000 2
20250 20249 20251 20253 1 180.0000771 15.1670000 2
20249 20251 20253 20254 1 180.0000771 15.1670000 2
20249 20251 20253 20255 1 180.0000771 15.1670000 2
20252 20251 20253 20254 1 180.0000771 15.1670000 2
20252 20251 20253 20255 1 180.0000771 15.1670000 2
20249 20253 20251 20252 4 180.0000771 4.6024000 2
20251 20253 20255 20256 1 180.0000771 15.1670000 2
20251 20253 20255 20257 1 180.0000771 15.1670000 2
20254 20253 20255 20256 1 180.0000771 15.1670000 2
20254 20253 20255 20257 1 180.0000771 15.1670000 2
20251 20255 20253 20254 4 180.0000771 4.6024000 2
20248 20255 20257 20258 4 180.0000771 4.6024000 2
20253 20255 20257 20258 1 180.0000771 15.1670000 2
20256 20255 20257 20258 1 180.0000771 15.1670000 2
20248 20257 20255 20253 1 180.0000771 15.1670000 2
20248 20257 20255 20256 1 180.0000771 15.1670000 2
20253 20257 20255 20256 4 180.0000771 4.6024000 2
20259 20260 20261 20262 1 180.0000771 15.1670000 2
20259 20260 20261 20263 1 180.0000771 15.1670000 2
20262 20260 20261 20263 4 180.0000771 4.6024000 2
20259 20260 20269 20261 4 180.0000771 4.6024000 2
20259 20260 20269 20267 1 180.0000771 15.1670000 2
20259 20260 20269 20270 1 180.0000771 15.1670000 2
20261 20260 20269 20267 1 180.0000771 15.1670000 2
20261 20260 20269 20270 1 180.0000771 15.1670000 2
20262 20261 20260 20269 1 180.0000771 15.1670000 2
20263 20261 20260 20269 1 180.0000771 15.1670000 2
20260 20261 20263 20264 1 180.0000771 15.1670000 2
20260 20261 20263 20265 1 180.0000771 15.1670000 2
20262 20261 20263 20264 1 180.0000771 15.1670000 2
20262 20261 20263 20265 1 180.0000771 15.1670000 2
20261 20263 20265 20266 1 180.0000771 15.1670000 2
20261 20263 20265 20267 1 180.0000771 15.1670000 2
20264 20263 20265 20266 1 180.0000771 15.1670000 2
20264 20263 20265 20267 1 180.0000771 15.1670000 2
20261 20265 20263 20264 4 180.0000771 4.6024000 2
20263 20265 20267 20268 1 180.0000771 15.1670000 2
20263 20265 20267 20269 1 180.0000771 15.1670000 2
20266 20265 20267 20268 1 180.0000771 15.1670000 2
20266 20265 20267 20269 1 180.0000771 15.1670000 2
20263 20267 20265 20266 4 180.0000771 4.6024000 2
20260 20267 20269 20270 4 180.0000771 4.6024000 2
20265 20267 20269 20270 1 180.0000771 15.1670000 2
20268 20267 20269 20270 1 180.0000771 15.1670000 2
20260 20269 20267 20265 1 180.0000771 15.1670000 2
20260 20269 20267 20268 1 180.0000771 15.1670000 2
20265 20269 20267 20268 4 180.0000771 4.6024000 2
20271 20272 20273 20274 1 180.0000771 15.1670000 2
20271 20272 20273 20275 1 180.0000771 15.1670000 2
20274 20272 20273 20275 4 180.0000771 4.6024000 2
20271 20272 20281 20273 4 180.0000771 4.6024000 2
20271 20272 20281 20279 1 180.0000771 15.1670000 2
20271 20272 20281 20282 1 180.0000771 15.1670000 2
20273 20272 20281 20279 1 180.0000771 15.1670000 2
20273 20272 20281 20282 1 180.0000771 15.1670000 2
20274 20273 20272 20281 1 180.0000771 15.1670000 2
20275 20273 20272 20281 1 180.0000771 15.1670000 2
20272 20273 20275 20276 1 180.0000771 15.1670000 2
20272 20273 20275 20277 1 180.0000771 15.1670000 2
20274 20273 20275 20276 1 180.0000771 15.1670000 2
20274 20273 20275 20277 1 180.0000771 15.1670000 2
20273 20275 20277 20278 1 180.0000771 15.1670000 2
20273 20275 20277 20279 1 180.0000771 15.1670000 2
20276 20275 20277 20278 1 180.0000771 15.1670000 2
20276 20275 20277 20279 1 180.0000771 15.1670000 2
20273 20277 20275 20276 4 180.0000771 4.6024000 2
20275 20277 20279 20280 1 180.0000771 15.1670000 2
20275 20277 20279 20281 1 180.0000771 15.1670000 2
20278 20277 20279 20280 1 180.0000771 15.1670000 2
20278 20277 20279 20281 1 180.0000771 15.1670000 2
20275 20279 20277 20278 4 180.0000771 4.6024000 2
20272 20279 20281 20282 4 180.0000771 4.6024000 2
20277 20279 20281 20282 1 180.0000771 15.1670000 2
20280 20279 20281 20282 1 180.0000771 15.1670000 2
20272 20281 20279 20277 1 180.0000771 15.1670000 2
20272 20281 20279 20280 1 180.0000771 15.1670000 2
20277 20281 20279 20280 4 180.0000771 4.6024000 2
20283 20284 20285 20286 1 180.0000771 15.1670000 2
20283 20284 20285 20287 1 180.0000771 15.1670000 2
20286 20284 20285 20287 4 180.0000771 4.6024000 2
20283 20284 20293 20285 4 180.0000771 4.6024000 2
20283 20284 20293 20291 1 180.0000771 15.1670000 2
20283 20284 20293 20294 1 180.0000771 15.1670000 2
20285 20284 20293 20291 1 180.0000771 15.1670000 2
20285 20284 20293 20294 1 180.0000771 15.1670000 2
20286 20285 20284 20293 1 180.0000771 15.1670000 2
20287 20285 20284 20293 1 180.0000771 15.1670000 2
20284 20285 20287 20288 1 180.0000771 15.1670000 2
20284 20285 20287 20289 1 180.0000771 15.1670000 2
20286 20285 20287 20288 1 180.0000771 15.1670000 2
20286 20285 20287 20289 1 180.0000771 15.1670000 2
20285 20287 20289 20290 1 180.0000771 15.1670000 2
20285 20287 20289 20291 1 180.0000771 15.1670000 2
20288 20287 20289 20290 1 180.0000771 15.1670000 2
20288 20287 20289 20291 1 180.0000771 15.1670000 2
20285 20289 20287 20288 4 180.0000771 4.6024000 2
20287 20289 20291 20292 1 180.0000771 15.1670000 2
20287 20289 20291 20293 1 180.0000771 15.1670000 2
20290 20289 20291 20292 1 180.0000771 15.1670000 2
20290 20289 20291 20293 1 180.0000771 15.1670000 2
20287 20291 20289 20290 4 180.0000771 4.6024000 2
20284 20291 20293 20294 4 180.0000771 4.6024000 2
20289 20291 20293 20294 1 180.0000771 15.1670000 2
20292 20291 20293 20294 1 180.0000771 15.1670000 2
20284 20293 20291 20289 1 180.0000771 15.1670000 2
20284 20293 20291 20292 1 180.0000771 15.1670000 2
20289 20293 20291 20292 4 180.0000771 4.6024000 2
20295 20296 20297 20298 1 180.0000771 15.1670000 2
20295 20296 20297 20299 1 180.0000771 15.1670000 2
20298 20296 20297 20299 4 180.0000771 4.6024000 2
20295 20296 20305 20297 4 180.0000771 4.6024000 2
20295 20296 20305 20303 1 180.0000771 15.1670000 2
20295 20296 20305 20306 1 180.0000771 15.1670000 2
20297 20296 20305 20303 1 180.0000771 15.1670000 2
20297 20296 20305 20306 1 180.0000771 15.1670000 2
20298 20297 20296 20305 1 180.0000771 15.1670000 2
20299 20297 20296 20305 1 180.0000771 15.1670000 2
20296 20297 20299 20300 1 180.0000771 15.1670000 2
20296 20297 20299 20301 1 180.0000771 15.1670000 2
20298 20297 20299 20300 1 180.0000771 15.1670000 2
20298 20297 20299 20301 1 180.0000771 15.1670000 2
20297 20299 20301 20302 1 180.0000771 15.1670000 2
20297 20299 20301 20303 1 180.0000771 15.1670000 2
20300 20299 20301 20302 1 180.0000771 15.1670000 2
20300 20299 20301 20303 1 180.0000771 15.1670000 2
20297 20301 20299 20300 4 180.0000771 4.6024000 2
20299 20301 20303 20304 1 180.0000771 15.1670000 2
20299 20301 20303 20305 1 180.0000771 15.1670000 2
20302 20301 20303 20304 1 180.0000771 15.1670000 2
20302 20301 20303 20305 1 180.0000771 15.1670000 2
20299 20303 20301 20302 4 180.0000771 4.6024000 2
20296 20303 20305 20306 4 180.0000771 4.6024000 2
20301 20303 20305 20306 1 180.0000771 15.1670000 2
20304 20303 20305 20306 1 180.0000771 15.1670000 2
20296 20305 20303 20301 1 180.0000771 15.1670000 2
20296 20305 20303 20304 1 180.0000771 15.1670000 2
20301 20305 20303 20304 4 180.0000771 4.6024000 2
20307 20308 20309 20310 1 180.0000771 15.1670000 2
20307 20308 20309 20311 1 180.0000771 15.1670000 2
20310 20308 20309 20311 4 180.0000771 4.6024000 2
20307 20308 20317 20309 4 180.0000771 4.6024000 2
20307 20308 20317 20315 1 180.0000771 15.1670000 2
20307 20308 20317 20318 1 180.0000771 15.1670000 2
20309 20308 20317 20315 1 180.0000771 15.1670000 2
20309 20308 20317 20318 1 180.0000771 15.1670000 2
20310 20309 20308 20317 1 180.0000771 15.1670000 2
20311 20309 20308 20317 1 180.0000771 15.1670000 2
20308 20309 20311 20312 1 180.0000771 15.1670000 2
20308 20309 20311 20313 1 180.0000771 15.1670000 2
20310 20309 20311 20312 1 180.0000771 15.1670000 2
20310 20309 20311 20313 1 180.0000771 15.1670000 2
20309 20311 20313 20314 1 180.0000771 15.1670000 2
20309 20311 20313 20315 1 180.0000771 15.1670000 2
20312 20311 20313 20314 1 180.0000771 15.1670000 2
20312 20311 20313 20315 1 180.0000771 15.1670000 2
20309 20313 20311 20312 4 180.0000771 4.6024000 2
20311 20313 20315 20316 1 180.0000771 15.1670000 2
20311 20313 20315 20317 1 180.0000771 15.1670000 2
20314 20313 20315 20316 1 180.0000771 15.1670000 2
20314 20313 20315 20317 1 180.0000771 15.1670000 2
20311 20315 20313 20314 4 180.0000771 4.6024000 2
20308 20315 20317 20318 4 180.0000771 4.6024000 2
20313 20315 20317 20318 1 180.0000771 15.1670000 2
20316 20315 20317 20318 1 180.0000771 15.1670000 2
20308 20317 20315 20313 1 180.0000771 15.1670000 2
20308 20317 20315 20316 1 180.0000771 15.1670000 2
20313 20317 20315 20316 4 180.0000771 4.6024000 2
20319 20320 20321 20322 1 180.0000771 15.1670000 2
20319 20320 20321 20323 1 180.0000771 15.1670000 2
20322 20320 20321 20323 4 180.0000771 4.6024000 2
20319 20320 20329 20321 4 180.0000771 4.6024000 2
20319 20320 20329 20327 1 180.0000771 15.1670000 2
20319 20320 20329 20330 1 180.0000771 15.1670000 2
20321 20320 20329 20327 1 180.0000771 15.1670000 2
20321 20320 20329 20330 1 180.0000771 15.1670000 2
20322 20321 20320 20329 1 180.0000771 15.1670000 2
20323 20321 20320 20329 1 180.0000771 15.1670000 2
20320 20321 20323 20324 1 180.0000771 15.1670000 2
20320 20321 20323 20325 1 180.0000771 15.1670000 2
20322 20321 20323 20324 1 180.0000771 15.1670000 2
20322 20321 20323 20325 1 180.0000771 15.1670000 2
20321 20323 20325 20326 1 180.0000771 15.1670000 2
20321 20323 20325 20327 1 180.0000771 15.1670000 2
20324 20323 20325 20326 1 180.0000771 15.1670000 2
20324 20323 20325 20327 1 180.0000771 15.1670000 2
20321 20325 20323 20324 4 180.0000771 4.6024000 2
20323 20325 20327 20328 1 180.0000771 15.1670000 2
20323 20325 20327 20329 1 180.0000771 15.1670000 2
20326 20325 20327 20328 1 180.0000771 15.1670000 2
20326 20325 20327 20329 1 180.0000771 15.1670000 2
20323 20327 20325 20326 4 180.0000771 4.6024000 2
20320 20327 20329 20330 4 180.0000771 4.6024000 2
20325 20327 20329 20330 1 180.0000771 15.1670000 2
20328 20327 20329 20330 1 180.0000771 15.1670000 2
20320 20329 20327 20325 1 180.0000771 15.1670000 2
20320 20329 20327 20328 1 180.0000771 15.1670000 2
20325 20329 20327 20328 4 180.0000771 4.6024000 2
20331 20332 20333 20334 1 180.0000771 15.1670000 2
20331 20332 20333 20335 1 180.0000771 15.1670000 2
20334 20332 20333 20335 4 180.0000771 4.6024000 2
20331 20332 20341 20333 4 180.0000771 4.6024000 2
20331 20332 20341 20339 1 180.0000771 15.1670000 2
20331 20332 20341 20342 1 180.0000771 15.1670000 2
20333 20332 20341 20339 1 180.0000771 15.1670000 2
20333 20332 20341 20342 1 180.0000771 15.1670000 2
20334 20333 20332 20341 1 180.0000771 15.1670000 2
20335 20333 20332 20341 1 180.0000771 15.1670000 2
20332 20333 20335 20336 1 180.0000771 15.1670000 2
20332 20333 20335 20337 1 180.0000771 15.1670000 2
20334 20333 20335 20336 1 180.0000771 15.1670000 2
20334 20333 20335 20337 1 180.0000771 15.1670000 2
20333 20335 20337 20338 1 180.0000771 15.1670000 2
20333 20335 20337 20339 1 180.0000771 15.1670000 2
20336 20335 20337 20338 1 180.0000771 15.1670000 2
20336 20335 20337 20339 1 180.0000771 15.1670000 2
20333 20337 20335 20336 4 180.0000771 4.6024000 2
20335 20337 20339 20340 1 180.0000771 15.1670000 2
20335 20337 20339 20341 1 180.0000771 15.1670000 2
20338 20337 20339 20340 1 180.0000771 15.1670000 2
20338 20337 20339 20341 1 180.0000771 15.1670000 2
20335 20339 20337 20338 4 180.0000771 4.6024000 2
20332 20339 20341 20342 4 180.0000771 4.6024000 2
20337 20339 20341 20342 1 180.0000771 15.1670000 2
20340 20339 20341 20342 1 180.0000771 15.1670000 2
20332 20341 20339 20337 1 180.0000771 15.1670000 2
20332 20341 20339 20340 1 180.0000771 15.1670000 2
20337 20341 20339 20340 4 180.0000771 4.6024000 2
20343 20344 20345 20346 1 180.0000771 15.1670000 2
20343 20344 20345 20347 1 180.0000771 15.1670000 2
20346 20344 20345 20347 4 180.0000771 4.6024000 2
20343 20344 20353 20345 4 180.0000771 4.6024000 2
20343 20344 20353 20351 1 180.0000771 15.1670000 2
20343 20344 20353 20354 1 180.0000771 15.1670000 2
20345 20344 20353 20351 1 180.0000771 15.1670000 2
20345 20344 20353 20354 1 180.0000771 15.1670000 2
20346 20345 20344 20353 1 180.0000771 15.1670000 2
20347 20345 20344 20353 1 180.0000771 15.1670000 2
20344 20345 20347 20348 1 180.0000771 15.1670000 2
20344 20345 20347 20349 1 180.0000771 15.1670000 2
20346 20345 20347 20348 1 180.0000771 15.1670000 2
20346 20345 20347 20349 1 180.0000771 15.1670000 2
20345 20347 20349 20350 1 180.0000771 15.1670000 2
20345 20347 20349 20351 1 180.0000771 15.1670000 2
20348 20347 20349 20350 1 180.0000771 15.1670000 2
20348 20347 20349 20351 1 180.0000771 15.1670000 2
20345 20349 20347 20348 4 180.0000771 4.6024000 2
20347 20349 20351 20352 1 180.0000771 15.1670000 2
20347 20349 20351 20353 1 180.0000771 15.1670000 2
20350 20349 20351 20352 1 180.0000771 15.1670000 2
20350 20349 20351 20353 1 180.0000771 15.1670000 2
20347 20351 20349 20350 4 180.0000771 4.6024000 2
20344 20351 20353 20354 4 180.0000771 4.6024000 2
20349 20351 20353 20354 1 180.0000771 15.1670000 2
20352 20351 20353 20354 1 180.0000771 15.1670000 2
20344 20353 20351 20349 1 180.0000771 15.1670000 2
20344 20353 20351 20352 1 180.0000771 15.1670000 2
20349 20353 20351 20352 4 180.0000771 4.6024000 2
20355 20356 20357 20358 1 180.0000771 15.1670000 2
20355 20356 20357 20359 1 180.0000771 15.1670000 2
20358 20356 20357 20359 4 180.0000771 4.6024000 2
20355 20356 20365 20357 4 180.0000771 4.6024000 2
20355 20356 20365 20363 1 180.0000771 15.1670000 2
20355 20356 20365 20366 1 180.0000771 15.1670000 2
20357 20356 20365 20363 1 180.0000771 15.1670000 2
20357 20356 20365 20366 1 180.0000771 15.1670000 2
20358 20357 20356 20365 1 180.0000771 15.1670000 2
20359 20357 20356 20365 1 180.0000771 15.1670000 2
20356 20357 20359 20360 1 180.0000771 15.1670000 2
20356 20357 20359 20361 1 180.0000771 15.1670000 2
20358 20357 20359 20360 1 180.0000771 15.1670000 2
20358 20357 20359 20361 1 180.0000771 15.1670000 2
20357 20359 20361 20362 1 180.0000771 15.1670000 2
20357 20359 20361 20363 1 180.0000771 15.1670000 2
20360 20359 20361 20362 1 180.0000771 15.1670000 2
20360 20359 20361 20363 1 180.0000771 15.1670000 2
20357 20361 20359 20360 4 180.0000771 4.6024000 2
20359 20361 20363 20364 1 180.0000771 15.1670000 2
20359 20361 20363 20365 1 180.0000771 15.1670000 2
20362 20361 20363 20364 1 180.0000771 15.1670000 2
20362 20361 20363 20365 1 180.0000771 15.1670000 2
20359 20363 20361 20362 4 180.0000771 4.6024000 2
20356 20363 20365 20366 4 180.0000771 4.6024000 2
20361 20363 20365 20366 1 180.0000771 15.1670000 2
20364 20363 20365 20366 1 180.0000771 15.1670000 2
20356 20365 20363 20361 1 180.0000771 15.1670000 2
20356 20365 20363 20364 1 180.0000771 15.1670000 2
20361 20365 20363 20364 4 180.0000771 4.6024000 2
20367 20368 20369 20370 1 180.0000771 15.1670000 2
20367 20368 20369 20371 1 180.0000771 15.1670000 2
20370 20368 20369 20371 4 180.0000771 4.6024000 2
20367 20368 20377 20369 4 180.0000771 4.6024000 2
20367 20368 20377 20375 1 180.0000771 15.1670000 2
20367 20368 20377 20378 1 180.0000771 15.1670000 2
20369 20368 20377 20375 1 180.0000771 15.1670000 2
20369 20368 20377 20378 1 180.0000771 15.1670000 2
20370 20369 20368 20377 1 180.0000771 15.1670000 2
20371 20369 20368 20377 1 180.0000771 15.1670000 2
20368 20369 20371 20372 1 180.0000771 15.1670000 2
20368 20369 20371 20373 1 180.0000771 15.1670000 2
20370 20369 20371 20372 1 180.0000771 15.1670000 2
20370 20369 20371 20373 1 180.0000771 15.1670000 2
20369 20371 20373 20374 1 180.0000771 15.1670000 2
20369 20371 20373 20375 1 180.0000771 15.1670000 2
20372 20371 20373 20374 1 180.0000771 15.1670000 2
20372 20371 20373 20375 1 180.0000771 15.1670000 2
20369 20373 20371 20372 4 180.0000771 4.6024000 2
20371 20373 20375 20376 1 180.0000771 15.1670000 2
20371 20373 20375 20377 1 180.0000771 15.1670000 2
20374 20373 20375 20376 1 180.0000771 15.1670000 2
20374 20373 20375 20377 1 180.0000771 15.1670000 2
20371 20375 20373 20374 4 180.0000771 4.6024000 2
20368 20375 20377 20378 4 180.0000771 4.6024000 2
20373 20375 20377 20378 1 180.0000771 15.1670000 2
20376 20375 20377 20378 1 180.0000771 15.1670000 2
20368 20377 20375 20373 1 180.0000771 15.1670000 2
20368 20377 20375 20376 1 180.0000771 15.1670000 2
20373 20377 20375 20376 4 180.0000771 4.6024000 2
20379 20380 20381 20382 1 180.0000771 15.1670000 2
20379 20380 20381 20383 1 180.0000771 15.1670000 2
20382 20380 20381 20383 4 180.0000771 4.6024000 2
20379 20380 20389 20381 4 180.0000771 4.6024000 2
20379 20380 20389 20387 1 180.0000771 15.1670000 2
20379 20380 20389 20390 1 180.0000771 15.1670000 2
20381 20380 20389 20387 1 180.0000771 15.1670000 2
20381 20380 20389 20390 1 180.0000771 15.1670000 2
20382 20381 20380 20389 1 180.0000771 15.1670000 2
20383 20381 20380 20389 1 180.0000771 15.1670000 2
20380 20381 20383 20384 1 180.0000771 15.1670000 2
20380 20381 20383 20385 1 180.0000771 15.1670000 2
20382 20381 20383 20384 1 180.0000771 15.1670000 2
20382 20381 20383 20385 1 180.0000771 15.1670000 2
20381 20383 20385 20386 1 180.0000771 15.1670000 2
20381 20383 20385 20387 1 180.0000771 15.1670000 2
20384 20383 20385 20386 1 180.0000771 15.1670000 2
20384 20383 20385 20387 1 180.0000771 15.1670000 2
20381 20385 20383 20384 4 180.0000771 4.6024000 2
20383 20385 20387 20388 1 180.0000771 15.1670000 2
20383 20385 20387 20389 1 180.0000771 15.1670000 2
20386 20385 20387 20388 1 180.0000771 15.1670000 2
20386 20385 20387 20389 1 180.0000771 15.1670000 2
20383 20387 20385 20386 4 180.0000771 4.6024000 2
20380 20387 20389 20390 4 180.0000771 4.6024000 2
20385 20387 20389 20390 1 180.0000771 15.1670000 2
20388 20387 20389 20390 1 180.0000771 15.1670000 2
20380 20389 20387 20385 1 180.0000771 15.1670000 2
20380 20389 20387 20388 1 180.0000771 15.1670000 2
20385 20389 20387 20388 4 180.0000771 4.6024000 2
20391 20392 20393 20394 1 180.0000771 15.1670000 2
20391 20392 20393 20395 1 180.0000771 15.1670000 2
20394 20392 20393 20395 4 180.0000771 4.6024000 2
20391 20392 20401 20393 4 180.0000771 4.6024000 2
20391 20392 20401 20399 1 180.0000771 15.1670000 2
20391 20392 20401 20402 1 180.0000771 15.1670000 2
20393 20392 20401 20399 1 180.0000771 15.1670000 2
20393 20392 20401 20402 1 180.0000771 15.1670000 2
20394 20393 20392 20401 1 180.0000771 15.1670000 2
20395 20393 20392 20401 1 180.0000771 15.1670000 2
20392 20393 20395 20396 1 180.0000771 15.1670000 2
20392 20393 20395 20397 1 180.0000771 15.1670000 2
20394 20393 20395 20396 1 180.0000771 15.1670000 2
20394 20393 20395 20397 1 180.0000771 15.1670000 2
20393 20395 20397 20398 1 180.0000771 15.1670000 2
20393 20395 20397 20399 1 180.0000771 15.1670000 2
20396 20395 20397 20398 1 180.0000771 15.1670000 2
20396 20395 20397 20399 1 180.0000771 15.1670000 2
20393 20397 20395 20396 4 180.0000771 4.6024000 2
20395 20397 20399 20400 1 180.0000771 15.1670000 2
20395 20397 20399 20401 1 180.0000771 15.1670000 2
20398 20397 20399 20400 1 180.0000771 15.1670000 2
20398 20397 20399 20401 1 180.0000771 15.1670000 2
20395 20399 20397 20398 4 180.0000771 4.6024000 2
20392 20399 20401 20402 4 180.0000771 4.6024000 2
20397 20399 20401 20402 1 180.0000771 15.1670000 2
20400 20399 20401 20402 1 180.0000771 15.1670000 2
20392 20401 20399 20397 1 180.0000771 15.1670000 2
20392 20401 20399 20400 1 180.0000771 15.1670000 2
20397 20401 20399 20400 4 180.0000771 4.6024000 2
20403 20404 20405 20406 1 180.0000771 15.1670000 2
20403 20404 20405 20407 1 180.0000771 15.1670000 2
20406 20404 20405 20407 4 180.0000771 4.6024000 2
20403 20404 20413 20405 4 180.0000771 4.6024000 2
20403 20404 20413 20411 1 180.0000771 15.1670000 2
20403 20404 20413 20414 1 180.0000771 15.1670000 2
20405 20404 20413 20411 1 180.0000771 15.1670000 2
20405 20404 20413 20414 1 180.0000771 15.1670000 2
20406 20405 20404 20413 1 180.0000771 15.1670000 2
20407 20405 20404 20413 1 180.0000771 15.1670000 2
20404 20405 20407 20408 1 180.0000771 15.1670000 2
20404 20405 20407 20409 1 180.0000771 15.1670000 2
20406 20405 20407 20408 1 180.0000771 15.1670000 2
20406 20405 20407 20409 1 180.0000771 15.1670000 2
20405 20407 20409 20410 1 180.0000771 15.1670000 2
20405 20407 20409 20411 1 180.0000771 15.1670000 2
20408 20407 20409 20410 1 180.0000771 15.1670000 2
20408 20407 20409 20411 1 180.0000771 15.1670000 2
20405 20409 20407 20408 4 180.0000771 4.6024000 2
20407 20409 20411 20412 1 180.0000771 15.1670000 2
20407 20409 20411 20413 1 180.0000771 15.1670000 2
20410 20409 20411 20412 1 180.0000771 15.1670000 2
20410 20409 20411 20413 1 180.0000771 15.1670000 2
20407 20411 20409 20410 4 180.0000771 4.6024000 2
20404 20411 20413 20414 4 180.0000771 4.6024000 2
20409 20411 20413 20414 1 180.0000771 15.1670000 2
20412 20411 20413 20414 1 180.0000771 15.1670000 2
20404 20413 20411 20409 1 180.0000771 15.1670000 2
20404 20413 20411 20412 1 180.0000771 15.1670000 2
20409 20413 20411 20412 4 180.0000771 4.6024000 2
20415 20416 20417 20418 1 180.0000771 15.1670000 2
20415 20416 20417 20419 1 180.0000771 15.1670000 2
20418 20416 20417 20419 4 180.0000771 4.6024000 2
20415 20416 20425 20417 4 180.0000771 4.6024000 2
20415 20416 20425 20423 1 180.0000771 15.1670000 2
20415 20416 20425 20426 1 180.0000771 15.1670000 2
20417 20416 20425 20423 1 180.0000771 15.1670000 2
20417 20416 20425 20426 1 180.0000771 15.1670000 2
20418 20417 20416 20425 1 180.0000771 15.1670000 2
20419 20417 20416 20425 1 180.0000771 15.1670000 2
20416 20417 20419 20420 1 180.0000771 15.1670000 2
20416 20417 20419 20421 1 180.0000771 15.1670000 2
20418 20417 20419 20420 1 180.0000771 15.1670000 2
20418 20417 20419 20421 1 180.0000771 15.1670000 2
20417 20419 20421 20422 1 180.0000771 15.1670000 2
20417 20419 20421 20423 1 180.0000771 15.1670000 2
20420 20419 20421 20422 1 180.0000771 15.1670000 2
20420 20419 20421 20423 1 180.0000771 15.1670000 2
20417 20421 20419 20420 4 180.0000771 4.6024000 2
20419 20421 20423 20424 1 180.0000771 15.1670000 2
20419 20421 20423 20425 1 180.0000771 15.1670000 2
20422 20421 20423 20424 1 180.0000771 15.1670000 2
20422 20421 20423 20425 1 180.0000771 15.1670000 2
20419 20423 20421 20422 4 180.0000771 4.6024000 2
20416 20423 20425 20426 4 180.0000771 4.6024000 2
20421 20423 20425 20426 1 180.0000771 15.1670000 2
20424 20423 20425 20426 1 180.0000771 15.1670000 2
20416 20425 20423 20421 1 180.0000771 15.1670000 2
20416 20425 20423 20424 1 180.0000771 15.1670000 2
20421 20425 20423 20424 4 180.0000771 4.6024000 2
20427 20428 20429 20430 1 180.0000771 15.1670000 2
20427 20428 20429 20431 1 180.0000771 15.1670000 2
20430 20428 20429 20431 4 180.0000771 4.6024000 2
20427 20428 20437 20429 4 180.0000771 4.6024000 2
20427 20428 20437 20435 1 180.0000771 15.1670000 2
20427 20428 20437 20438 1 180.0000771 15.1670000 2
20429 20428 20437 20435 1 180.0000771 15.1670000 2
20429 20428 20437 20438 1 180.0000771 15.1670000 2
20430 20429 20428 20437 1 180.0000771 15.1670000 2
20431 20429 20428 20437 1 180.0000771 15.1670000 2
20428 20429 20431 20432 1 180.0000771 15.1670000 2
20428 20429 20431 20433 1 180.0000771 15.1670000 2
20430 20429 20431 20432 1 180.0000771 15.1670000 2
20430 20429 20431 20433 1 180.0000771 15.1670000 2
20429 20431 20433 20434 1 180.0000771 15.1670000 2
20429 20431 20433 20435 1 180.0000771 15.1670000 2
20432 20431 20433 20434 1 180.0000771 15.1670000 2
20432 20431 20433 20435 1 180.0000771 15.1670000 2
20429 20433 20431 20432 4 180.0000771 4.6024000 2
20431 20433 20435 20436 1 180.0000771 15.1670000 2
20431 20433 20435 20437 1 180.0000771 15.1670000 2
20434 20433 20435 20436 1 180.0000771 15.1670000 2
20434 20433 20435 20437 1 180.0000771 15.1670000 2
20431 20435 20433 20434 4 180.0000771 4.6024000 2
20428 20435 20437 20438 4 180.0000771 4.6024000 2
20433 20435 20437 20438 1 180.0000771 15.1670000 2
20436 20435 20437 20438 1 180.0000771 15.1670000 2
20428 20437 20435 20433 1 180.0000771 15.1670000 2
20428 20437 20435 20436 1 180.0000771 15.1670000 2
20433 20437 20435 20436 4 180.0000771 4.6024000 2
20439 20440 20441 20442 1 180.0000771 15.1670000 2
20439 20440 20441 20443 1 180.0000771 15.1670000 2
20442 20440 20441 20443 4 180.0000771 4.6024000 2
20439 20440 20449 20441 4 180.0000771 4.6024000 2
20439 20440 20449 20447 1 180.0000771 15.1670000 2
20439 20440 20449 20450 1 180.0000771 15.1670000 2
20441 20440 20449 20447 1 180.0000771 15.1670000 2
20441 20440 20449 20450 1 180.0000771 15.1670000 2
20442 20441 20440 20449 1 180.0000771 15.1670000 2
20443 20441 20440 20449 1 180.0000771 15.1670000 2
20440 20441 20443 20444 1 180.0000771 15.1670000 2
20440 20441 20443 20445 1 180.0000771 15.1670000 2
20442 20441 20443 20444 1 180.0000771 15.1670000 2
20442 20441 20443 20445 1 180.0000771 15.1670000 2
20441 20443 20445 20446 1 180.0000771 15.1670000 2
20441 20443 20445 20447 1 180.0000771 15.1670000 2
20444 20443 20445 20446 1 180.0000771 15.1670000 2
20444 20443 20445 20447 1 180.0000771 15.1670000 2
20441 20445 20443 20444 4 180.0000771 4.6024000 2
20443 20445 20447 20448 1 180.0000771 15.1670000 2
20443 20445 20447 20449 1 180.0000771 15.1670000 2
20446 20445 20447 20448 1 180.0000771 15.1670000 2
20446 20445 20447 20449 1 180.0000771 15.1670000 2
20443 20447 20445 20446 4 180.0000771 4.6024000 2
20440 20447 20449 20450 4 180.0000771 4.6024000 2
20445 20447 20449 20450 1 180.0000771 15.1670000 2
20448 20447 20449 20450 1 180.0000771 15.1670000 2
20440 20449 20447 20445 1 180.0000771 15.1670000 2
20440 20449 20447 20448 1 180.0000771 15.1670000 2
20445 20449 20447 20448 4 180.0000771 4.6024000 2
20451 20452 20453 20454 1 180.0000771 15.1670000 2
20451 20452 20453 20455 1 180.0000771 15.1670000 2
20454 20452 20453 20455 4 180.0000771 4.6024000 2
20451 20452 20461 20453 4 180.0000771 4.6024000 2
20451 20452 20461 20459 1 180.0000771 15.1670000 2
20451 20452 20461 20462 1 180.0000771 15.1670000 2
20453 20452 20461 20459 1 180.0000771 15.1670000 2
20453 20452 20461 20462 1 180.0000771 15.1670000 2
20454 20453 20452 20461 1 180.0000771 15.1670000 2
20455 20453 20452 20461 1 180.0000771 15.1670000 2
20452 20453 20455 20456 1 180.0000771 15.1670000 2
20452 20453 20455 20457 1 180.0000771 15.1670000 2
20454 20453 20455 20456 1 180.0000771 15.1670000 2
20454 20453 20455 20457 1 180.0000771 15.1670000 2
20453 20455 20457 20458 1 180.0000771 15.1670000 2
20453 20455 20457 20459 1 180.0000771 15.1670000 2
20456 20455 20457 20458 1 180.0000771 15.1670000 2
20456 20455 20457 20459 1 180.0000771 15.1670000 2
20453 20457 20455 20456 4 180.0000771 4.6024000 2
20455 20457 20459 20460 1 180.0000771 15.1670000 2
20455 20457 20459 20461 1 180.0000771 15.1670000 2
20458 20457 20459 20460 1 180.0000771 15.1670000 2
20458 20457 20459 20461 1 180.0000771 15.1670000 2
20455 20459 20457 20458 4 180.0000771 4.6024000 2
20452 20459 20461 20462 4 180.0000771 4.6024000 2
20457 20459 20461 20462 1 180.0000771 15.1670000 2
20460 20459 20461 20462 1 180.0000771 15.1670000 2
20452 20461 20459 20457 1 180.0000771 15.1670000 2
20452 20461 20459 20460 1 180.0000771 15.1670000 2
20457 20461 20459 20460 4 180.0000771 4.6024000 2
20463 20464 20465 20466 1 180.0000771 15.1670000 2
20463 20464 20465 20467 1 180.0000771 15.1670000 2
20466 20464 20465 20467 4 180.0000771 4.6024000 2
20463 20464 20473 20465 4 180.0000771 4.6024000 2
20463 20464 20473 20471 1 180.0000771 15.1670000 2
20463 20464 20473 20474 1 180.0000771 15.1670000 2
20465 20464 20473 20471 1 180.0000771 15.1670000 2
20465 20464 20473 20474 1 180.0000771 15.1670000 2
20466 20465 20464 20473 1 180.0000771 15.1670000 2
20467 20465 20464 20473 1 180.0000771 15.1670000 2
20464 20465 20467 20468 1 180.0000771 15.1670000 2
20464 20465 20467 20469 1 180.0000771 15.1670000 2
20466 20465 20467 20468 1 180.0000771 15.1670000 2
20466 20465 20467 20469 1 180.0000771 15.1670000 2
20465 20467 20469 20470 1 180.0000771 15.1670000 2
20465 20467 20469 20471 1 180.0000771 15.1670000 2
20468 20467 20469 20470 1 180.0000771 15.1670000 2
20468 20467 20469 20471 1 180.0000771 15.1670000 2
20465 20469 20467 20468 4 180.0000771 4.6024000 2
20467 20469 20471 20472 1 180.0000771 15.1670000 2
20467 20469 20471 20473 1 180.0000771 15.1670000 2
20470 20469 20471 20472 1 180.0000771 15.1670000 2
20470 20469 20471 20473 1 180.0000771 15.1670000 2
20467 20471 20469 20470 4 180.0000771 4.6024000 2
20464 20471 20473 20474 4 180.0000771 4.6024000 2
20469 20471 20473 20474 1 180.0000771 15.1670000 2
20472 20471 20473 20474 1 180.0000771 15.1670000 2
20464 20473 20471 20469 1 180.0000771 15.1670000 2
20464 20473 20471 20472 1 180.0000771 15.1670000 2
20469 20473 20471 20472 4 180.0000771 4.6024000 2
20475 20476 20477 20478 1 180.0000771 15.1670000 2
20475 20476 20477 20479 1 180.0000771 15.1670000 2
20478 20476 20477 20479 4 180.0000771 4.6024000 2
20475 20476 20485 20477 4 180.0000771 4.6024000 2
20475 20476 20485 20483 1 180.0000771 15.1670000 2
20475 20476 20485 20486 1 180.0000771 15.1670000 2
20477 20476 20485 20483 1 180.0000771 15.1670000 2
20477 20476 20485 20486 1 180.0000771 15.1670000 2
20478 20477 20476 20485 1 180.0000771 15.1670000 2
20479 20477 20476 20485 1 180.0000771 15.1670000 2
20476 20477 20479 20480 1 180.0000771 15.1670000 2
20476 20477 20479 20481 1 180.0000771 15.1670000 2
20478 20477 20479 20480 1 180.0000771 15.1670000 2
20478 20477 20479 20481 1 180.0000771 15.1670000 2
20477 20479 20481 20482 1 180.0000771 15.1670000 2
20477 20479 20481 20483 1 180.0000771 15.1670000 2
20480 20479 20481 20482 1 180.0000771 15.1670000 2
20480 20479 20481 20483 1 180.0000771 15.1670000 2
20477 20481 20479 20480 4 180.0000771 4.6024000 2
20479 20481 20483 20484 1 180.0000771 15.1670000 2
20479 20481 20483 20485 1 180.0000771 15.1670000 2
20482 20481 20483 20484 1 180.0000771 15.1670000 2
20482 20481 20483 20485 1 180.0000771 15.1670000 2
20479 20483 20481 20482 4 180.0000771 4.6024000 2
20476 20483 20485 20486 4 180.0000771 4.6024000 2
20481 20483 20485 20486 1 180.0000771 15.1670000 2
20484 20483 20485 20486 1 180.0000771 15.1670000 2
20476 20485 20483 20481 1 180.0000771 15.1670000 2
20476 20485 20483 20484 1 180.0000771 15.1670000 2
20481 20485 20483 20484 4 180.0000771 4.6024000 2
20487 20488 20489 20490 1 180.0000771 15.1670000 2
20487 20488 20489 20491 1 180.0000771 15.1670000 2
20490 20488 20489 20491 4 180.0000771 4.6024000 2
20487 20488 20497 20489 4 180.0000771 4.6024000 2
20487 20488 20497 20495 1 180.0000771 15.1670000 2
20487 20488 20497 20498 1 180.0000771 15.1670000 2
20489 20488 20497 20495 1 180.0000771 15.1670000 2
20489 20488 20497 20498 1 180.0000771 15.1670000 2
20490 20489 20488 20497 1 180.0000771 15.1670000 2
20491 20489 20488 20497 1 180.0000771 15.1670000 2
20488 20489 20491 20492 1 180.0000771 15.1670000 2
20488 20489 20491 20493 1 180.0000771 15.1670000 2
20490 20489 20491 20492 1 180.0000771 15.1670000 2
20490 20489 20491 20493 1 180.0000771 15.1670000 2
20489 20491 20493 20494 1 180.0000771 15.1670000 2
20489 20491 20493 20495 1 180.0000771 15.1670000 2
20492 20491 20493 20494 1 180.0000771 15.1670000 2
20492 20491 20493 20495 1 180.0000771 15.1670000 2
20489 20493 20491 20492 4 180.0000771 4.6024000 2
20491 20493 20495 20496 1 180.0000771 15.1670000 2
20491 20493 20495 20497 1 180.0000771 15.1670000 2
20494 20493 20495 20496 1 180.0000771 15.1670000 2
20494 20493 20495 20497 1 180.0000771 15.1670000 2
20491 20495 20493 20494 4 180.0000771 4.6024000 2
20488 20495 20497 20498 4 180.0000771 4.6024000 2
20493 20495 20497 20498 1 180.0000771 15.1670000 2
20496 20495 20497 20498 1 180.0000771 15.1670000 2
20488 20497 20495 20493 1 180.0000771 15.1670000 2
20488 20497 20495 20496 1 180.0000771 15.1670000 2
20493 20497 20495 20496 4 180.0000771 4.6024000 2
20499 20500 20501 20502 1 180.0000771 15.1670000 2
20499 20500 20501 20503 1 180.0000771 15.1670000 2
20502 20500 20501 20503 4 180.0000771 4.6024000 2
20499 20500 20509 20501 4 180.0000771 4.6024000 2
20499 20500 20509 20507 1 180.0000771 15.1670000 2
20499 20500 20509 20510 1 180.0000771 15.1670000 2
20501 20500 20509 20507 1 180.0000771 15.1670000 2
20501 20500 20509 20510 1 180.0000771 15.1670000 2
20502 20501 20500 20509 1 180.0000771 15.1670000 2
20503 20501 20500 20509 1 180.0000771 15.1670000 2
20500 20501 20503 20504 1 180.0000771 15.1670000 2
20500 20501 20503 20505 1 180.0000771 15.1670000 2
20502 20501 20503 20504 1 180.0000771 15.1670000 2
20502 20501 20503 20505 1 180.0000771 15.1670000 2
20501 20503 20505 20506 1 180.0000771 15.1670000 2
20501 20503 20505 20507 1 180.0000771 15.1670000 2
20504 20503 20505 20506 1 180.0000771 15.1670000 2
20504 20503 20505 20507 1 180.0000771 15.1670000 2
20501 20505 20503 20504 4 180.0000771 4.6024000 2
20503 20505 20507 20508 1 180.0000771 15.1670000 2
20503 20505 20507 20509 1 180.0000771 15.1670000 2
20506 20505 20507 20508 1 180.0000771 15.1670000 2
20506 20505 20507 20509 1 180.0000771 15.1670000 2
20503 20507 20505 20506 4 180.0000771 4.6024000 2
20500 20507 20509 20510 4 180.0000771 4.6024000 2
20505 20507 20509 20510 1 180.0000771 15.1670000 2
20508 20507 20509 20510 1 180.0000771 15.1670000 2
20500 20509 20507 20505 1 180.0000771 15.1670000 2
20500 20509 20507 20508 1 180.0000771 15.1670000 2
20505 20509 20507 20508 4 180.0000771 4.6024000 2
20511 20512 20513 20514 1 180.0000771 15.1670000 2
20511 20512 20513 20515 1 180.0000771 15.1670000 2
20514 20512 20513 20515 4 180.0000771 4.6024000 2
20511 20512 20521 20513 4 180.0000771 4.6024000 2
20511 20512 20521 20519 1 180.0000771 15.1670000 2
20511 20512 20521 20522 1 180.0000771 15.1670000 2
20513 20512 20521 20519 1 180.0000771 15.1670000 2
20513 20512 20521 20522 1 180.0000771 15.1670000 2
20514 20513 20512 20521 1 180.0000771 15.1670000 2
20515 20513 20512 20521 1 180.0000771 15.1670000 2
20512 20513 20515 20516 1 180.0000771 15.1670000 2
20512 20513 20515 20517 1 180.0000771 15.1670000 2
20514 20513 20515 20516 1 180.0000771 15.1670000 2
20514 20513 20515 20517 1 180.0000771 15.1670000 2
20513 20515 20517 20518 1 180.0000771 15.1670000 2
20513 20515 20517 20519 1 180.0000771 15.1670000 2
20516 20515 20517 20518 1 180.0000771 15.1670000 2
20516 20515 20517 20519 1 180.0000771 15.1670000 2
20513 20517 20515 20516 4 180.0000771 4.6024000 2
20515 20517 20519 20520 1 180.0000771 15.1670000 2
20515 20517 20519 20521 1 180.0000771 15.1670000 2
20518 20517 20519 20520 1 180.0000771 15.1670000 2
20518 20517 20519 20521 1 180.0000771 15.1670000 2
20515 20519 20517 20518 4 180.0000771 4.6024000 2
20512 20519 20521 20522 4 180.0000771 4.6024000 2
20517 20519 20521 20522 1 180.0000771 15.1670000 2
20520 20519 20521 20522 1 180.0000771 15.1670000 2
20512 20521 20519 20517 1 180.0000771 15.1670000 2
20512 20521 20519 20520 1 180.0000771 15.1670000 2
20517 20521 20519 20520 4 180.0000771 4.6024000 2
20523 20524 20525 20526 1 180.0000771 15.1670000 2
20523 20524 20525 20527 1 180.0000771 15.1670000 2
20526 20524 20525 20527 4 180.0000771 4.6024000 2
20523 20524 20533 20525 4 180.0000771 4.6024000 2
20523 20524 20533 20531 1 180.0000771 15.1670000 2
20523 20524 20533 20534 1 180.0000771 15.1670000 2
20525 20524 20533 20531 1 180.0000771 15.1670000 2
20525 20524 20533 20534 1 180.0000771 15.1670000 2
20526 20525 20524 20533 1 180.0000771 15.1670000 2
20527 20525 20524 20533 1 180.0000771 15.1670000 2
20524 20525 20527 20528 1 180.0000771 15.1670000 2
20524 20525 20527 20529 1 180.0000771 15.1670000 2
20526 20525 20527 20528 1 180.0000771 15.1670000 2
20526 20525 20527 20529 1 180.0000771 15.1670000 2
20525 20527 20529 20530 1 180.0000771 15.1670000 2
20525 20527 20529 20531 1 180.0000771 15.1670000 2
20528 20527 20529 20530 1 180.0000771 15.1670000 2
20528 20527 20529 20531 1 180.0000771 15.1670000 2
20525 20529 20527 20528 4 180.0000771 4.6024000 2
20527 20529 20531 20532 1 180.0000771 15.1670000 2
20527 20529 20531 20533 1 180.0000771 15.1670000 2
20530 20529 20531 20532 1 180.0000771 15.1670000 2
20530 20529 20531 20533 1 180.0000771 15.1670000 2
20527 20531 20529 20530 4 180.0000771 4.6024000 2
20524 20531 20533 20534 4 180.0000771 4.6024000 2
20529 20531 20533 20534 1 180.0000771 15.1670000 2
20532 20531 20533 20534 1 180.0000771 15.1670000 2
20524 20533 20531 20529 1 180.0000771 15.1670000 2
20524 20533 20531 20532 1 180.0000771 15.1670000 2
20529 20533 20531 20532 4 180.0000771 4.6024000 2
20535 20536 20537 20538 1 180.0000771 15.1670000 2
20535 20536 20537 20539 1 180.0000771 15.1670000 2
20538 20536 20537 20539 4 180.0000771 4.6024000 2
20535 20536 20545 20537 4 180.0000771 4.6024000 2
20535 20536 20545 20543 1 180.0000771 15.1670000 2
20535 20536 20545 20546 1 180.0000771 15.1670000 2
20537 20536 20545 20543 1 180.0000771 15.1670000 2
20537 20536 20545 20546 1 180.0000771 15.1670000 2
20538 20537 20536 20545 1 180.0000771 15.1670000 2
20539 20537 20536 20545 1 180.0000771 15.1670000 2
20536 20537 20539 20540 1 180.0000771 15.1670000 2
20536 20537 20539 20541 1 180.0000771 15.1670000 2
20538 20537 20539 20540 1 180.0000771 15.1670000 2
20538 20537 20539 20541 1 180.0000771 15.1670000 2
20537 20539 20541 20542 1 180.0000771 15.1670000 2
20537 20539 20541 20543 1 180.0000771 15.1670000 2
20540 20539 20541 20542 1 180.0000771 15.1670000 2
20540 20539 20541 20543 1 180.0000771 15.1670000 2
20537 20541 20539 20540 4 180.0000771 4.6024000 2
20539 20541 20543 20544 1 180.0000771 15.1670000 2
20539 20541 20543 20545 1 180.0000771 15.1670000 2
20542 20541 20543 20544 1 180.0000771 15.1670000 2
20542 20541 20543 20545 1 180.0000771 15.1670000 2
20539 20543 20541 20542 4 180.0000771 4.6024000 2
20536 20543 20545 20546 4 180.0000771 4.6024000 2
20541 20543 20545 20546 1 180.0000771 15.1670000 2
20544 20543 20545 20546 1 180.0000771 15.1670000 2
20536 20545 20543 20541 1 180.0000771 15.1670000 2
20536 20545 20543 20544 1 180.0000771 15.1670000 2
20541 20545 20543 20544 4 180.0000771 4.6024000 2
20547 20548 20549 20550 1 180.0000771 15.1670000 2
20547 20548 20549 20551 1 180.0000771 15.1670000 2
20550 20548 20549 20551 4 180.0000771 4.6024000 2
20547 20548 20557 20549 4 180.0000771 4.6024000 2
20547 20548 20557 20555 1 180.0000771 15.1670000 2
20547 20548 20557 20558 1 180.0000771 15.1670000 2
20549 20548 20557 20555 1 180.0000771 15.1670000 2
20549 20548 20557 20558 1 180.0000771 15.1670000 2
20550 20549 20548 20557 1 180.0000771 15.1670000 2
20551 20549 20548 20557 1 180.0000771 15.1670000 2
20548 20549 20551 20552 1 180.0000771 15.1670000 2
20548 20549 20551 20553 1 180.0000771 15.1670000 2
20550 20549 20551 20552 1 180.0000771 15.1670000 2
20550 20549 20551 20553 1 180.0000771 15.1670000 2
20549 20551 20553 20554 1 180.0000771 15.1670000 2
20549 20551 20553 20555 1 180.0000771 15.1670000 2
20552 20551 20553 20554 1 180.0000771 15.1670000 2
20552 20551 20553 20555 1 180.0000771 15.1670000 2
20549 20553 20551 20552 4 180.0000771 4.6024000 2
20551 20553 20555 20556 1 180.0000771 15.1670000 2
20551 20553 20555 20557 1 180.0000771 15.1670000 2
20554 20553 20555 20556 1 180.0000771 15.1670000 2
20554 20553 20555 20557 1 180.0000771 15.1670000 2
20551 20555 20553 20554 4 180.0000771 4.6024000 2
20548 20555 20557 20558 4 180.0000771 4.6024000 2
20553 20555 20557 20558 1 180.0000771 15.1670000 2
20556 20555 20557 20558 1 180.0000771 15.1670000 2
20548 20557 20555 20553 1 180.0000771 15.1670000 2
20548 20557 20555 20556 1 180.0000771 15.1670000 2
20553 20557 20555 20556 4 180.0000771 4.6024000 2
20559 20560 20561 20562 1 180.0000771 15.1670000 2
20559 20560 20561 20563 1 180.0000771 15.1670000 2
20562 20560 20561 20563 4 180.0000771 4.6024000 2
20559 20560 20569 20561 4 180.0000771 4.6024000 2
20559 20560 20569 20567 1 180.0000771 15.1670000 2
20559 20560 20569 20570 1 180.0000771 15.1670000 2
20561 20560 20569 20567 1 180.0000771 15.1670000 2
20561 20560 20569 20570 1 180.0000771 15.1670000 2
20562 20561 20560 20569 1 180.0000771 15.1670000 2
20563 20561 20560 20569 1 180.0000771 15.1670000 2
20560 20561 20563 20564 1 180.0000771 15.1670000 2
20560 20561 20563 20565 1 180.0000771 15.1670000 2
20562 20561 20563 20564 1 180.0000771 15.1670000 2
20562 20561 20563 20565 1 180.0000771 15.1670000 2
20561 20563 20565 20566 1 180.0000771 15.1670000 2
20561 20563 20565 20567 1 180.0000771 15.1670000 2
20564 20563 20565 20566 1 180.0000771 15.1670000 2
20564 20563 20565 20567 1 180.0000771 15.1670000 2
20561 20565 20563 20564 4 180.0000771 4.6024000 2
20563 20565 20567 20568 1 180.0000771 15.1670000 2
20563 20565 20567 20569 1 180.0000771 15.1670000 2
20566 20565 20567 20568 1 180.0000771 15.1670000 2
20566 20565 20567 20569 1 180.0000771 15.1670000 2
20563 20567 20565 20566 4 180.0000771 4.6024000 2
20560 20567 20569 20570 4 180.0000771 4.6024000 2
20565 20567 20569 20570 1 180.0000771 15.1670000 2
20568 20567 20569 20570 1 180.0000771 15.1670000 2
20560 20569 20567 20565 1 180.0000771 15.1670000 2
20560 20569 20567 20568 1 180.0000771 15.1670000 2
20565 20569 20567 20568 4 180.0000771 4.6024000 2
20571 20572 20573 20574 1 180.0000771 15.1670000 2
20571 20572 20573 20575 1 180.0000771 15.1670000 2
20574 20572 20573 20575 4 180.0000771 4.6024000 2
20571 20572 20581 20573 4 180.0000771 4.6024000 2
20571 20572 20581 20579 1 180.0000771 15.1670000 2
20571 20572 20581 20582 1 180.0000771 15.1670000 2
20573 20572 20581 20579 1 180.0000771 15.1670000 2
20573 20572 20581 20582 1 180.0000771 15.1670000 2
20574 20573 20572 20581 1 180.0000771 15.1670000 2
20575 20573 20572 20581 1 180.0000771 15.1670000 2
20572 20573 20575 20576 1 180.0000771 15.1670000 2
20572 20573 20575 20577 1 180.0000771 15.1670000 2
20574 20573 20575 20576 1 180.0000771 15.1670000 2
20574 20573 20575 20577 1 180.0000771 15.1670000 2
20573 20575 20577 20578 1 180.0000771 15.1670000 2
20573 20575 20577 20579 1 180.0000771 15.1670000 2
20576 20575 20577 20578 1 180.0000771 15.1670000 2
20576 20575 20577 20579 1 180.0000771 15.1670000 2
20573 20577 20575 20576 4 180.0000771 4.6024000 2
20575 20577 20579 20580 1 180.0000771 15.1670000 2
20575 20577 20579 20581 1 180.0000771 15.1670000 2
20578 20577 20579 20580 1 180.0000771 15.1670000 2
20578 20577 20579 20581 1 180.0000771 15.1670000 2
20575 20579 20577 20578 4 180.0000771 4.6024000 2
20572 20579 20581 20582 4 180.0000771 4.6024000 2
20577 20579 20581 20582 1 180.0000771 15.1670000 2
20580 20579 20581 20582 1 180.0000771 15.1670000 2
20572 20581 20579 20577 1 180.0000771 15.1670000 2
20572 20581 20579 20580 1 180.0000771 15.1670000 2
20577 20581 20579 20580 4 180.0000771 4.6024000 2
20583 20584 20585 20586 1 180.0000771 15.1670000 2
20583 20584 20585 20587 1 180.0000771 15.1670000 2
20586 20584 20585 20587 4 180.0000771 4.6024000 2
20583 20584 20593 20585 4 180.0000771 4.6024000 2
20583 20584 20593 20591 1 180.0000771 15.1670000 2
20583 20584 20593 20594 1 180.0000771 15.1670000 2
20585 20584 20593 20591 1 180.0000771 15.1670000 2
20585 20584 20593 20594 1 180.0000771 15.1670000 2
20586 20585 20584 20593 1 180.0000771 15.1670000 2
20587 20585 20584 20593 1 180.0000771 15.1670000 2
20584 20585 20587 20588 1 180.0000771 15.1670000 2
20584 20585 20587 20589 1 180.0000771 15.1670000 2
20586 20585 20587 20588 1 180.0000771 15.1670000 2
20586 20585 20587 20589 1 180.0000771 15.1670000 2
20585 20587 20589 20590 1 180.0000771 15.1670000 2
20585 20587 20589 20591 1 180.0000771 15.1670000 2
20588 20587 20589 20590 1 180.0000771 15.1670000 2
20588 20587 20589 20591 1 180.0000771 15.1670000 2
20585 20589 20587 20588 4 180.0000771 4.6024000 2
20587 20589 20591 20592 1 180.0000771 15.1670000 2
20587 20589 20591 20593 1 180.0000771 15.1670000 2
20590 20589 20591 20592 1 180.0000771 15.1670000 2
20590 20589 20591 20593 1 180.0000771 15.1670000 2
20587 20591 20589 20590 4 180.0000771 4.6024000 2
20584 20591 20593 20594 4 180.0000771 4.6024000 2
20589 20591 20593 20594 1 180.0000771 15.1670000 2
20592 20591 20593 20594 1 180.0000771 15.1670000 2
20584 20593 20591 20589 1 180.0000771 15.1670000 2
20584 20593 20591 20592 1 180.0000771 15.1670000 2
20589 20593 20591 20592 4 180.0000771 4.6024000 2
20595 20596 20597 20598 1 180.0000771 15.1670000 2
20595 20596 20597 20599 1 180.0000771 15.1670000 2
20598 20596 20597 20599 4 180.0000771 4.6024000 2
20595 20596 20605 20597 4 180.0000771 4.6024000 2
20595 20596 20605 20603 1 180.0000771 15.1670000 2
20595 20596 20605 20606 1 180.0000771 15.1670000 2
20597 20596 20605 20603 1 180.0000771 15.1670000 2
20597 20596 20605 20606 1 180.0000771 15.1670000 2
20598 20597 20596 20605 1 180.0000771 15.1670000 2
20599 20597 20596 20605 1 180.0000771 15.1670000 2
20596 20597 20599 20600 1 180.0000771 15.1670000 2
20596 20597 20599 20601 1 180.0000771 15.1670000 2
20598 20597 20599 20600 1 180.0000771 15.1670000 2
20598 20597 20599 20601 1 180.0000771 15.1670000 2
20597 20599 20601 20602 1 180.0000771 15.1670000 2
20597 20599 20601 20603 1 180.0000771 15.1670000 2
20600 20599 20601 20602 1 180.0000771 15.1670000 2
20600 20599 20601 20603 1 180.0000771 15.1670000 2
20597 20601 20599 20600 4 180.0000771 4.6024000 2
20599 20601 20603 20604 1 180.0000771 15.1670000 2
20599 20601 20603 20605 1 180.0000771 15.1670000 2
20602 20601 20603 20604 1 180.0000771 15.1670000 2
20602 20601 20603 20605 1 180.0000771 15.1670000 2
20599 20603 20601 20602 4 180.0000771 4.6024000 2
20596 20603 20605 20606 4 180.0000771 4.6024000 2
20601 20603 20605 20606 1 180.0000771 15.1670000 2
20604 20603 20605 20606 1 180.0000771 15.1670000 2
20596 20605 20603 20601 1 180.0000771 15.1670000 2
20596 20605 20603 20604 1 180.0000771 15.1670000 2
20601 20605 20603 20604 4 180.0000771 4.6024000 2
20607 20608 20609 20610 1 180.0000771 15.1670000 2
20607 20608 20609 20611 1 180.0000771 15.1670000 2
20610 20608 20609 20611 4 180.0000771 4.6024000 2
20607 20608 20617 20609 4 180.0000771 4.6024000 2
20607 20608 20617 20615 1 180.0000771 15.1670000 2
20607 20608 20617 20618 1 180.0000771 15.1670000 2
20609 20608 20617 20615 1 180.0000771 15.1670000 2
20609 20608 20617 20618 1 180.0000771 15.1670000 2
20610 20609 20608 20617 1 180.0000771 15.1670000 2
20611 20609 20608 20617 1 180.0000771 15.1670000 2
20608 20609 20611 20612 1 180.0000771 15.1670000 2
20608 20609 20611 20613 1 180.0000771 15.1670000 2
20610 20609 20611 20612 1 180.0000771 15.1670000 2
20610 20609 20611 20613 1 180.0000771 15.1670000 2
20609 20611 20613 20614 1 180.0000771 15.1670000 2
20609 20611 20613 20615 1 180.0000771 15.1670000 2
20612 20611 20613 20614 1 180.0000771 15.1670000 2
20612 20611 20613 20615 1 180.0000771 15.1670000 2
20609 20613 20611 20612 4 180.0000771 4.6024000 2
20611 20613 20615 20616 1 180.0000771 15.1670000 2
20611 20613 20615 20617 1 180.0000771 15.1670000 2
20614 20613 20615 20616 1 180.0000771 15.1670000 2
20614 20613 20615 20617 1 180.0000771 15.1670000 2
20611 20615 20613 20614 4 180.0000771 4.6024000 2
20608 20615 20617 20618 4 180.0000771 4.6024000 2
20613 20615 20617 20618 1 180.0000771 15.1670000 2
20616 20615 20617 20618 1 180.0000771 15.1670000 2
20608 20617 20615 20613 1 180.0000771 15.1670000 2
20608 20617 20615 20616 1 180.0000771 15.1670000 2
20613 20617 20615 20616 4 180.0000771 4.6024000 2
20619 20620 20621 20622 1 180.0000771 15.1670000 2
20619 20620 20621 20623 1 180.0000771 15.1670000 2
20622 20620 20621 20623 4 180.0000771 4.6024000 2
20619 20620 20629 20621 4 180.0000771 4.6024000 2
20619 20620 20629 20627 1 180.0000771 15.1670000 2
20619 20620 20629 20630 1 180.0000771 15.1670000 2
20621 20620 20629 20627 1 180.0000771 15.1670000 2
20621 20620 20629 20630 1 180.0000771 15.1670000 2
20622 20621 20620 20629 1 180.0000771 15.1670000 2
20623 20621 20620 20629 1 180.0000771 15.1670000 2
20620 20621 20623 20624 1 180.0000771 15.1670000 2
20620 20621 20623 20625 1 180.0000771 15.1670000 2
20622 20621 20623 20624 1 180.0000771 15.1670000 2
20622 20621 20623 20625 1 180.0000771 15.1670000 2
20621 20623 20625 20626 1 180.0000771 15.1670000 2
20621 20623 20625 20627 1 180.0000771 15.1670000 2
20624 20623 20625 20626 1 180.0000771 15.1670000 2
20624 20623 20625 20627 1 180.0000771 15.1670000 2
20621 20625 20623 20624 4 180.0000771 4.6024000 2
20623 20625 20627 20628 1 180.0000771 15.1670000 2
20623 20625 20627 20629 1 180.0000771 15.1670000 2
20626 20625 20627 20628 1 180.0000771 15.1670000 2
20626 20625 20627 20629 1 180.0000771 15.1670000 2
20623 20627 20625 20626 4 180.0000771 4.6024000 2
20620 20627 20629 20630 4 180.0000771 4.6024000 2
20625 20627 20629 20630 1 180.0000771 15.1670000 2
20628 20627 20629 20630 1 180.0000771 15.1670000 2
20620 20629 20627 20625 1 180.0000771 15.1670000 2
20620 20629 20627 20628 1 180.0000771 15.1670000 2
20625 20629 20627 20628 4 180.0000771 4.6024000 2
20631 20632 20633 20634 1 180.0000771 15.1670000 2
20631 20632 20633 20635 1 180.0000771 15.1670000 2
20634 20632 20633 20635 4 180.0000771 4.6024000 2
20631 20632 20641 20633 4 180.0000771 4.6024000 2
20631 20632 20641 20639 1 180.0000771 15.1670000 2
20631 20632 20641 20642 1 180.0000771 15.1670000 2
20633 20632 20641 20639 1 180.0000771 15.1670000 2
20633 20632 20641 20642 1 180.0000771 15.1670000 2
20634 20633 20632 20641 1 180.0000771 15.1670000 2
20635 20633 20632 20641 1 180.0000771 15.1670000 2
20632 20633 20635 20636 1 180.0000771 15.1670000 2
20632 20633 20635 20637 1 180.0000771 15.1670000 2
20634 20633 20635 20636 1 180.0000771 15.1670000 2
20634 20633 20635 20637 1 180.0000771 15.1670000 2
20633 20635 20637 20638 1 180.0000771 15.1670000 2
20633 20635 20637 20639 1 180.0000771 15.1670000 2
20636 20635 20637 20638 1 180.0000771 15.1670000 2
20636 20635 20637 20639 1 180.0000771 15.1670000 2
20633 20637 20635 20636 4 180.0000771 4.6024000 2
20635 20637 20639 20640 1 180.0000771 15.1670000 2
20635 20637 20639 20641 1 180.0000771 15.1670000 2
20638 20637 20639 20640 1 180.0000771 15.1670000 2
20638 20637 20639 20641 1 180.0000771 15.1670000 2
20635 20639 20637 20638 4 180.0000771 4.6024000 2
20632 20639 20641 20642 4 180.0000771 4.6024000 2
20637 20639 20641 20642 1 180.0000771 15.1670000 2
20640 20639 20641 20642 1 180.0000771 15.1670000 2
20632 20641 20639 20637 1 180.0000771 15.1670000 2
20632 20641 20639 20640 1 180.0000771 15.1670000 2
20637 20641 20639 20640 4 180.0000771 4.6024000 2
20643 20644 20645 20646 1 180.0000771 15.1670000 2
20643 20644 20645 20647 1 180.0000771 15.1670000 2
20646 20644 20645 20647 4 180.0000771 4.6024000 2
20643 20644 20653 20645 4 180.0000771 4.6024000 2
20643 20644 20653 20651 1 180.0000771 15.1670000 2
20643 20644 20653 20654 1 180.0000771 15.1670000 2
20645 20644 20653 20651 1 180.0000771 15.1670000 2
20645 20644 20653 20654 1 180.0000771 15.1670000 2
20646 20645 20644 20653 1 180.0000771 15.1670000 2
20647 20645 20644 20653 1 180.0000771 15.1670000 2
20644 20645 20647 20648 1 180.0000771 15.1670000 2
20644 20645 20647 20649 1 180.0000771 15.1670000 2
20646 20645 20647 20648 1 180.0000771 15.1670000 2
20646 20645 20647 20649 1 180.0000771 15.1670000 2
20645 20647 20649 20650 1 180.0000771 15.1670000 2
20645 20647 20649 20651 1 180.0000771 15.1670000 2
20648 20647 20649 20650 1 180.0000771 15.1670000 2
20648 20647 20649 20651 1 180.0000771 15.1670000 2
20645 20649 20647 20648 4 180.0000771 4.6024000 2
20647 20649 20651 20652 1 180.0000771 15.1670000 2
20647 20649 20651 20653 1 180.0000771 15.1670000 2
20650 20649 20651 20652 1 180.0000771 15.1670000 2
20650 20649 20651 20653 1 180.0000771 15.1670000 2
20647 20651 20649 20650 4 180.0000771 4.6024000 2
20644 20651 20653 20654 4 180.0000771 4.6024000 2
20649 20651 20653 20654 1 180.0000771 15.1670000 2
20652 20651 20653 20654 1 180.0000771 15.1670000 2
20644 20653 20651 20649 1 180.0000771 15.1670000 2
20644 20653 20651 20652 1 180.0000771 15.1670000 2
20649 20653 20651 20652 4 180.0000771 4.6024000 2
20655 20656 20657 20658 1 180.0000771 15.1670000 2
20655 20656 20657 20659 1 180.0000771 15.1670000 2
20658 20656 20657 20659 4 180.0000771 4.6024000 2
20655 20656 20665 20657 4 180.0000771 4.6024000 2
20655 20656 20665 20663 1 180.0000771 15.1670000 2
20655 20656 20665 20666 1 180.0000771 15.1670000 2
20657 20656 20665 20663 1 180.0000771 15.1670000 2
20657 20656 20665 20666 1 180.0000771 15.1670000 2
20658 20657 20656 20665 1 180.0000771 15.1670000 2
20659 20657 20656 20665 1 180.0000771 15.1670000 2
20656 20657 20659 20660 1 180.0000771 15.1670000 2
20656 20657 20659 20661 1 180.0000771 15.1670000 2
20658 20657 20659 20660 1 180.0000771 15.1670000 2
20658 20657 20659 20661 1 180.0000771 15.1670000 2
20657 20659 20661 20662 1 180.0000771 15.1670000 2
20657 20659 20661 20663 1 180.0000771 15.1670000 2
20660 20659 20661 20662 1 180.0000771 15.1670000 2
20660 20659 20661 20663 1 180.0000771 15.1670000 2
20657 20661 20659 20660 4 180.0000771 4.6024000 2
20659 20661 20663 20664 1 180.0000771 15.1670000 2
20659 20661 20663 20665 1 180.0000771 15.1670000 2
20662 20661 20663 20664 1 180.0000771 15.1670000 2
20662 20661 20663 20665 1 180.0000771 15.1670000 2
20659 20663 20661 20662 4 180.0000771 4.6024000 2
20656 20663 20665 20666 4 180.0000771 4.6024000 2
20661 20663 20665 20666 1 180.0000771 15.1670000 2
20664 20663 20665 20666 1 180.0000771 15.1670000 2
20656 20665 20663 20661 1 180.0000771 15.1670000 2
20656 20665 20663 20664 1 180.0000771 15.1670000 2
20661 20665 20663 20664 4 180.0000771 4.6024000 2
20667 20668 20669 20670 1 180.0000771 15.1670000 2
20667 20668 20669 20671 1 180.0000771 15.1670000 2
20670 20668 20669 20671 4 180.0000771 4.6024000 2
20667 20668 20677 20669 4 180.0000771 4.6024000 2
20667 20668 20677 20675 1 180.0000771 15.1670000 2
20667 20668 20677 20678 1 180.0000771 15.1670000 2
20669 20668 20677 20675 1 180.0000771 15.1670000 2
20669 20668 20677 20678 1 180.0000771 15.1670000 2
20670 20669 20668 20677 1 180.0000771 15.1670000 2
20671 20669 20668 20677 1 180.0000771 15.1670000 2
20668 20669 20671 20672 1 180.0000771 15.1670000 2
20668 20669 20671 20673 1 180.0000771 15.1670000 2
20670 20669 20671 20672 1 180.0000771 15.1670000 2
20670 20669 20671 20673 1 180.0000771 15.1670000 2
20669 20671 20673 20674 1 180.0000771 15.1670000 2
20669 20671 20673 20675 1 180.0000771 15.1670000 2
20672 20671 20673 20674 1 180.0000771 15.1670000 2
20672 20671 20673 20675 1 180.0000771 15.1670000 2
20669 20673 20671 20672 4 180.0000771 4.6024000 2
20671 20673 20675 20676 1 180.0000771 15.1670000 2
20671 20673 20675 20677 1 180.0000771 15.1670000 2
20674 20673 20675 20676 1 180.0000771 15.1670000 2
20674 20673 20675 20677 1 180.0000771 15.1670000 2
20671 20675 20673 20674 4 180.0000771 4.6024000 2
20668 20675 20677 20678 4 180.0000771 4.6024000 2
20673 20675 20677 20678 1 180.0000771 15.1670000 2
20676 20675 20677 20678 1 180.0000771 15.1670000 2
20668 20677 20675 20673 1 180.0000771 15.1670000 2
20668 20677 20675 20676 1 180.0000771 15.1670000 2
20673 20677 20675 20676 4 180.0000771 4.6024000 2
20679 20680 20681 20682 1 180.0000771 15.1670000 2
20679 20680 20681 20683 1 180.0000771 15.1670000 2
20682 20680 20681 20683 4 180.0000771 4.6024000 2
20679 20680 20689 20681 4 180.0000771 4.6024000 2
20679 20680 20689 20687 1 180.0000771 15.1670000 2
20679 20680 20689 20690 1 180.0000771 15.1670000 2
20681 20680 20689 20687 1 180.0000771 15.1670000 2
20681 20680 20689 20690 1 180.0000771 15.1670000 2
20682 20681 20680 20689 1 180.0000771 15.1670000 2
20683 20681 20680 20689 1 180.0000771 15.1670000 2
20680 20681 20683 20684 1 180.0000771 15.1670000 2
20680 20681 20683 20685 1 180.0000771 15.1670000 2
20682 20681 20683 20684 1 180.0000771 15.1670000 2
20682 20681 20683 20685 1 180.0000771 15.1670000 2
20681 20683 20685 20686 1 180.0000771 15.1670000 2
20681 20683 20685 20687 1 180.0000771 15.1670000 2
20684 20683 20685 20686 1 180.0000771 15.1670000 2
20684 20683 20685 20687 1 180.0000771 15.1670000 2
20681 20685 20683 20684 4 180.0000771 4.6024000 2
20683 20685 20687 20688 1 180.0000771 15.1670000 2
20683 20685 20687 20689 1 180.0000771 15.1670000 2
20686 20685 20687 20688 1 180.0000771 15.1670000 2
20686 20685 20687 20689 1 180.0000771 15.1670000 2
20683 20687 20685 20686 4 180.0000771 4.6024000 2
20680 20687 20689 20690 4 180.0000771 4.6024000 2
20685 20687 20689 20690 1 180.0000771 15.1670000 2
20688 20687 20689 20690 1 180.0000771 15.1670000 2
20680 20689 20687 20685 1 180.0000771 15.1670000 2
20680 20689 20687 20688 1 180.0000771 15.1670000 2
20685 20689 20687 20688 4 180.0000771 4.6024000 2
20691 20692 20693 20694 1 180.0000771 15.1670000 2
20691 20692 20693 20695 1 180.0000771 15.1670000 2
20694 20692 20693 20695 4 180.0000771 4.6024000 2
20691 20692 20701 20693 4 180.0000771 4.6024000 2
20691 20692 20701 20699 1 180.0000771 15.1670000 2
20691 20692 20701 20702 1 180.0000771 15.1670000 2
20693 20692 20701 20699 1 180.0000771 15.1670000 2
20693 20692 20701 20702 1 180.0000771 15.1670000 2
20694 20693 20692 20701 1 180.0000771 15.1670000 2
20695 20693 20692 20701 1 180.0000771 15.1670000 2
20692 20693 20695 20696 1 180.0000771 15.1670000 2
20692 20693 20695 20697 1 180.0000771 15.1670000 2
20694 20693 20695 20696 1 180.0000771 15.1670000 2
20694 20693 20695 20697 1 180.0000771 15.1670000 2
20693 20695 20697 20698 1 180.0000771 15.1670000 2
20693 20695 20697 20699 1 180.0000771 15.1670000 2
20696 20695 20697 20698 1 180.0000771 15.1670000 2
20696 20695 20697 20699 1 180.0000771 15.1670000 2
20693 20697 20695 20696 4 180.0000771 4.6024000 2
20695 20697 20699 20700 1 180.0000771 15.1670000 2
20695 20697 20699 20701 1 180.0000771 15.1670000 2
20698 20697 20699 20700 1 180.0000771 15.1670000 2
20698 20697 20699 20701 1 180.0000771 15.1670000 2
20695 20699 20697 20698 4 180.0000771 4.6024000 2
20692 20699 20701 20702 4 180.0000771 4.6024000 2
20697 20699 20701 20702 1 180.0000771 15.1670000 2
20700 20699 20701 20702 1 180.0000771 15.1670000 2
20692 20701 20699 20697 1 180.0000771 15.1670000 2
20692 20701 20699 20700 1 180.0000771 15.1670000 2
20697 20701 20699 20700 4 180.0000771 4.6024000 2
20703 20704 20705 20706 1 180.0000771 15.1670000 2
20703 20704 20705 20707 1 180.0000771 15.1670000 2
20706 20704 20705 20707 4 180.0000771 4.6024000 2
20703 20704 20713 20705 4 180.0000771 4.6024000 2
20703 20704 20713 20711 1 180.0000771 15.1670000 2
20703 20704 20713 20714 1 180.0000771 15.1670000 2
20705 20704 20713 20711 1 180.0000771 15.1670000 2
20705 20704 20713 20714 1 180.0000771 15.1670000 2
20706 20705 20704 20713 1 180.0000771 15.1670000 2
20707 20705 20704 20713 1 180.0000771 15.1670000 2
20704 20705 20707 20708 1 180.0000771 15.1670000 2
20704 20705 20707 20709 1 180.0000771 15.1670000 2
20706 20705 20707 20708 1 180.0000771 15.1670000 2
20706 20705 20707 20709 1 180.0000771 15.1670000 2
20705 20707 20709 20710 1 180.0000771 15.1670000 2
20705 20707 20709 20711 1 180.0000771 15.1670000 2
20708 20707 20709 20710 1 180.0000771 15.1670000 2
20708 20707 20709 20711 1 180.0000771 15.1670000 2
20705 20709 20707 20708 4 180.0000771 4.6024000 2
20707 20709 20711 20712 1 180.0000771 15.1670000 2
20707 20709 20711 20713 1 180.0000771 15.1670000 2
20710 20709 20711 20712 1 180.0000771 15.1670000 2
20710 20709 20711 20713 1 180.0000771 15.1670000 2
20707 20711 20709 20710 4 180.0000771 4.6024000 2
20704 20711 20713 20714 4 180.0000771 4.6024000 2
20709 20711 20713 20714 1 180.0000771 15.1670000 2
20712 20711 20713 20714 1 180.0000771 15.1670000 2
20704 20713 20711 20709 1 180.0000771 15.1670000 2
20704 20713 20711 20712 1 180.0000771 15.1670000 2
20709 20713 20711 20712 4 180.0000771 4.6024000 2
20715 20716 20717 20718 1 180.0000771 15.1670000 2
20715 20716 20717 20719 1 180.0000771 15.1670000 2
20718 20716 20717 20719 4 180.0000771 4.6024000 2
20715 20716 20725 20717 4 180.0000771 4.6024000 2
20715 20716 20725 20723 1 180.0000771 15.1670000 2
20715 20716 20725 20726 1 180.0000771 15.1670000 2
20717 20716 20725 20723 1 180.0000771 15.1670000 2
20717 20716 20725 20726 1 180.0000771 15.1670000 2
20718 20717 20716 20725 1 180.0000771 15.1670000 2
20719 20717 20716 20725 1 180.0000771 15.1670000 2
20716 20717 20719 20720 1 180.0000771 15.1670000 2
20716 20717 20719 20721 1 180.0000771 15.1670000 2
20718 20717 20719 20720 1 180.0000771 15.1670000 2
20718 20717 20719 20721 1 180.0000771 15.1670000 2
20717 20719 20721 20722 1 180.0000771 15.1670000 2
20717 20719 20721 20723 1 180.0000771 15.1670000 2
20720 20719 20721 20722 1 180.0000771 15.1670000 2
20720 20719 20721 20723 1 180.0000771 15.1670000 2
20717 20721 20719 20720 4 180.0000771 4.6024000 2
20719 20721 20723 20724 1 180.0000771 15.1670000 2
20719 20721 20723 20725 1 180.0000771 15.1670000 2
20722 20721 20723 20724 1 180.0000771 15.1670000 2
20722 20721 20723 20725 1 180.0000771 15.1670000 2
20719 20723 20721 20722 4 180.0000771 4.6024000 2
20716 20723 20725 20726 4 180.0000771 4.6024000 2
20721 20723 20725 20726 1 180.0000771 15.1670000 2
20724 20723 20725 20726 1 180.0000771 15.1670000 2
20716 20725 20723 20721 1 180.0000771 15.1670000 2
20716 20725 20723 20724 1 180.0000771 15.1670000 2
20721 20725 20723 20724 4 180.0000771 4.6024000 2
20727 20728 20729 20730 1 180.0000771 15.1670000 2
20727 20728 20729 20731 1 180.0000771 15.1670000 2
20730 20728 20729 20731 4 180.0000771 4.6024000 2
20727 20728 20737 20729 4 180.0000771 4.6024000 2
20727 20728 20737 20735 1 180.0000771 15.1670000 2
20727 20728 20737 20738 1 180.0000771 15.1670000 2
20729 20728 20737 20735 1 180.0000771 15.1670000 2
20729 20728 20737 20738 1 180.0000771 15.1670000 2
20730 20729 20728 20737 1 180.0000771 15.1670000 2
20731 20729 20728 20737 1 180.0000771 15.1670000 2
20728 20729 20731 20732 1 180.0000771 15.1670000 2
20728 20729 20731 20733 1 180.0000771 15.1670000 2
20730 20729 20731 20732 1 180.0000771 15.1670000 2
20730 20729 20731 20733 1 180.0000771 15.1670000 2
20729 20731 20733 20734 1 180.0000771 15.1670000 2
20729 20731 20733 20735 1 180.0000771 15.1670000 2
20732 20731 20733 20734 1 180.0000771 15.1670000 2
20732 20731 20733 20735 1 180.0000771 15.1670000 2
20729 20733 20731 20732 4 180.0000771 4.6024000 2
20731 20733 20735 20736 1 180.0000771 15.1670000 2
20731 20733 20735 20737 1 180.0000771 15.1670000 2
20734 20733 20735 20736 1 180.0000771 15.1670000 2
20734 20733 20735 20737 1 180.0000771 15.1670000 2
20731 20735 20733 20734 4 180.0000771 4.6024000 2
20728 20735 20737 20738 4 180.0000771 4.6024000 2
20733 20735 20737 20738 1 180.0000771 15.1670000 2
20736 20735 20737 20738 1 180.0000771 15.1670000 2
20728 20737 20735 20733 1 180.0000771 15.1670000 2
20728 20737 20735 20736 1 180.0000771 15.1670000 2
20733 20737 20735 20736 4 180.0000771 4.6024000 2
20739 20740 20741 20742 1 180.0000771 15.1670000 2
20739 20740 20741 20743 1 180.0000771 15.1670000 2
20742 20740 20741 20743 4 180.0000771 4.6024000 2
20739 20740 20749 20741 4 180.0000771 4.6024000 2
20739 20740 20749 20747 1 180.0000771 15.1670000 2
20739 20740 20749 20750 1 180.0000771 15.1670000 2
20741 20740 20749 20747 1 180.0000771 15.1670000 2
20741 20740 20749 20750 1 180.0000771 15.1670000 2
20742 20741 20740 20749 1 180.0000771 15.1670000 2
20743 20741 20740 20749 1 180.0000771 15.1670000 2
20740 20741 20743 20744 1 180.0000771 15.1670000 2
20740 20741 20743 20745 1 180.0000771 15.1670000 2
20742 20741 20743 20744 1 180.0000771 15.1670000 2
20742 20741 20743 20745 1 180.0000771 15.1670000 2
20741 20743 20745 20746 1 180.0000771 15.1670000 2
20741 20743 20745 20747 1 180.0000771 15.1670000 2
20744 20743 20745 20746 1 180.0000771 15.1670000 2
20744 20743 20745 20747 1 180.0000771 15.1670000 2
20741 20745 20743 20744 4 180.0000771 4.6024000 2
20743 20745 20747 20748 1 180.0000771 15.1670000 2
20743 20745 20747 20749 1 180.0000771 15.1670000 2
20746 20745 20747 20748 1 180.0000771 15.1670000 2
20746 20745 20747 20749 1 180.0000771 15.1670000 2
20743 20747 20745 20746 4 180.0000771 4.6024000 2
20740 20747 20749 20750 4 180.0000771 4.6024000 2
20745 20747 20749 20750 1 180.0000771 15.1670000 2
20748 20747 20749 20750 1 180.0000771 15.1670000 2
20740 20749 20747 20745 1 180.0000771 15.1670000 2
20740 20749 20747 20748 1 180.0000771 15.1670000 2
20745 20749 20747 20748 4 180.0000771 4.6024000 2
20751 20752 20753 20754 1 180.0000771 15.1670000 2
20751 20752 20753 20755 1 180.0000771 15.1670000 2
20754 20752 20753 20755 4 180.0000771 4.6024000 2
20751 20752 20761 20753 4 180.0000771 4.6024000 2
20751 20752 20761 20759 1 180.0000771 15.1670000 2
20751 20752 20761 20762 1 180.0000771 15.1670000 2
20753 20752 20761 20759 1 180.0000771 15.1670000 2
20753 20752 20761 20762 1 180.0000771 15.1670000 2
20754 20753 20752 20761 1 180.0000771 15.1670000 2
20755 20753 20752 20761 1 180.0000771 15.1670000 2
20752 20753 20755 20756 1 180.0000771 15.1670000 2
20752 20753 20755 20757 1 180.0000771 15.1670000 2
20754 20753 20755 20756 1 180.0000771 15.1670000 2
20754 20753 20755 20757 1 180.0000771 15.1670000 2
20753 20755 20757 20758 1 180.0000771 15.1670000 2
20753 20755 20757 20759 1 180.0000771 15.1670000 2
20756 20755 20757 20758 1 180.0000771 15.1670000 2
20756 20755 20757 20759 1 180.0000771 15.1670000 2
20753 20757 20755 20756 4 180.0000771 4.6024000 2
20755 20757 20759 20760 1 180.0000771 15.1670000 2
20755 20757 20759 20761 1 180.0000771 15.1670000 2
20758 20757 20759 20760 1 180.0000771 15.1670000 2
20758 20757 20759 20761 1 180.0000771 15.1670000 2
20755 20759 20757 20758 4 180.0000771 4.6024000 2
20752 20759 20761 20762 4 180.0000771 4.6024000 2
20757 20759 20761 20762 1 180.0000771 15.1670000 2
20760 20759 20761 20762 1 180.0000771 15.1670000 2
20752 20761 20759 20757 1 180.0000771 15.1670000 2
20752 20761 20759 20760 1 180.0000771 15.1670000 2
20757 20761 20759 20760 4 180.0000771 4.6024000 2
20763 20764 20765 20766 1 180.0000771 15.1670000 2
20763 20764 20765 20767 1 180.0000771 15.1670000 2
20766 20764 20765 20767 4 180.0000771 4.6024000 2
20763 20764 20773 20765 4 180.0000771 4.6024000 2
20763 20764 20773 20771 1 180.0000771 15.1670000 2
20763 20764 20773 20774 1 180.0000771 15.1670000 2
20765 20764 20773 20771 1 180.0000771 15.1670000 2
20765 20764 20773 20774 1 180.0000771 15.1670000 2
20766 20765 20764 20773 1 180.0000771 15.1670000 2
20767 20765 20764 20773 1 180.0000771 15.1670000 2
20764 20765 20767 20768 1 180.0000771 15.1670000 2
20764 20765 20767 20769 1 180.0000771 15.1670000 2
20766 20765 20767 20768 1 180.0000771 15.1670000 2
20766 20765 20767 20769 1 180.0000771 15.1670000 2
20765 20767 20769 20770 1 180.0000771 15.1670000 2
20765 20767 20769 20771 1 180.0000771 15.1670000 2
20768 20767 20769 20770 1 180.0000771 15.1670000 2
20768 20767 20769 20771 1 180.0000771 15.1670000 2
20765 20769 20767 20768 4 180.0000771 4.6024000 2
20767 20769 20771 20772 1 180.0000771 15.1670000 2
20767 20769 20771 20773 1 180.0000771 15.1670000 2
20770 20769 20771 20772 1 180.0000771 15.1670000 2
20770 20769 20771 20773 1 180.0000771 15.1670000 2
20767 20771 20769 20770 4 180.0000771 4.6024000 2
20764 20771 20773 20774 4 180.0000771 4.6024000 2
20769 20771 20773 20774 1 180.0000771 15.1670000 2
20772 20771 20773 20774 1 180.0000771 15.1670000 2
20764 20773 20771 20769 1 180.0000771 15.1670000 2
20764 20773 20771 20772 1 180.0000771 15.1670000 2
20769 20773 20771 20772 4 180.0000771 4.6024000 2
20775 20776 20777 20778 1 180.0000771 15.1670000 2
20775 20776 20777 20779 1 180.0000771 15.1670000 2
20778 20776 20777 20779 4 180.0000771 4.6024000 2
20775 20776 20785 20777 4 180.0000771 4.6024000 2
20775 20776 20785 20783 1 180.0000771 15.1670000 2
20775 20776 20785 20786 1 180.0000771 15.1670000 2
20777 20776 20785 20783 1 180.0000771 15.1670000 2
20777 20776 20785 20786 1 180.0000771 15.1670000 2
20778 20777 20776 20785 1 180.0000771 15.1670000 2
20779 20777 20776 20785 1 180.0000771 15.1670000 2
20776 20777 20779 20780 1 180.0000771 15.1670000 2
20776 20777 20779 20781 1 180.0000771 15.1670000 2
20778 20777 20779 20780 1 180.0000771 15.1670000 2
20778 20777 20779 20781 1 180.0000771 15.1670000 2
20777 20779 20781 20782 1 180.0000771 15.1670000 2
20777 20779 20781 20783 1 180.0000771 15.1670000 2
20780 20779 20781 20782 1 180.0000771 15.1670000 2
20780 20779 20781 20783 1 180.0000771 15.1670000 2
20777 20781 20779 20780 4 180.0000771 4.6024000 2
20779 20781 20783 20784 1 180.0000771 15.1670000 2
20779 20781 20783 20785 1 180.0000771 15.1670000 2
20782 20781 20783 20784 1 180.0000771 15.1670000 2
20782 20781 20783 20785 1 180.0000771 15.1670000 2
20779 20783 20781 20782 4 180.0000771 4.6024000 2
20776 20783 20785 20786 4 180.0000771 4.6024000 2
20781 20783 20785 20786 1 180.0000771 15.1670000 2
20784 20783 20785 20786 1 180.0000771 15.1670000 2
20776 20785 20783 20781 1 180.0000771 15.1670000 2
20776 20785 20783 20784 1 180.0000771 15.1670000 2
20781 20785 20783 20784 4 180.0000771 4.6024000 2
20787 20788 20789 20790 1 180.0000771 15.1670000 2
20787 20788 20789 20791 1 180.0000771 15.1670000 2
20790 20788 20789 20791 4 180.0000771 4.6024000 2
20787 20788 20797 20789 4 180.0000771 4.6024000 2
20787 20788 20797 20795 1 180.0000771 15.1670000 2
20787 20788 20797 20798 1 180.0000771 15.1670000 2
20789 20788 20797 20795 1 180.0000771 15.1670000 2
20789 20788 20797 20798 1 180.0000771 15.1670000 2
20790 20789 20788 20797 1 180.0000771 15.1670000 2
20791 20789 20788 20797 1 180.0000771 15.1670000 2
20788 20789 20791 20792 1 180.0000771 15.1670000 2
20788 20789 20791 20793 1 180.0000771 15.1670000 2
20790 20789 20791 20792 1 180.0000771 15.1670000 2
20790 20789 20791 20793 1 180.0000771 15.1670000 2
20789 20791 20793 20794 1 180.0000771 15.1670000 2
20789 20791 20793 20795 1 180.0000771 15.1670000 2
20792 20791 20793 20794 1 180.0000771 15.1670000 2
20792 20791 20793 20795 1 180.0000771 15.1670000 2
20789 20793 20791 20792 4 180.0000771 4.6024000 2
20791 20793 20795 20796 1 180.0000771 15.1670000 2
20791 20793 20795 20797 1 180.0000771 15.1670000 2
20794 20793 20795 20796 1 180.0000771 15.1670000 2
20794 20793 20795 20797 1 180.0000771 15.1670000 2
20791 20795 20793 20794 4 180.0000771 4.6024000 2
20788 20795 20797 20798 4 180.0000771 4.6024000 2
20793 20795 20797 20798 1 180.0000771 15.1670000 2
20796 20795 20797 20798 1 180.0000771 15.1670000 2
20788 20797 20795 20793 1 180.0000771 15.1670000 2
20788 20797 20795 20796 1 180.0000771 15.1670000 2
20793 20797 20795 20796 4 180.0000771 4.6024000 2
20799 20800 20801 20802 1 180.0000771 15.1670000 2
20799 20800 20801 20803 1 180.0000771 15.1670000 2
20802 20800 20801 20803 4 180.0000771 4.6024000 2
20799 20800 20809 20801 4 180.0000771 4.6024000 2
20799 20800 20809 20807 1 180.0000771 15.1670000 2
20799 20800 20809 20810 1 180.0000771 15.1670000 2
20801 20800 20809 20807 1 180.0000771 15.1670000 2
20801 20800 20809 20810 1 180.0000771 15.1670000 2
20802 20801 20800 20809 1 180.0000771 15.1670000 2
20803 20801 20800 20809 1 180.0000771 15.1670000 2
20800 20801 20803 20804 1 180.0000771 15.1670000 2
20800 20801 20803 20805 1 180.0000771 15.1670000 2
20802 20801 20803 20804 1 180.0000771 15.1670000 2
20802 20801 20803 20805 1 180.0000771 15.1670000 2
20801 20803 20805 20806 1 180.0000771 15.1670000 2
20801 20803 20805 20807 1 180.0000771 15.1670000 2
20804 20803 20805 20806 1 180.0000771 15.1670000 2
20804 20803 20805 20807 1 180.0000771 15.1670000 2
20801 20805 20803 20804 4 180.0000771 4.6024000 2
20803 20805 20807 20808 1 180.0000771 15.1670000 2
20803 20805 20807 20809 1 180.0000771 15.1670000 2
20806 20805 20807 20808 1 180.0000771 15.1670000 2
20806 20805 20807 20809 1 180.0000771 15.1670000 2
20803 20807 20805 20806 4 180.0000771 4.6024000 2
20800 20807 20809 20810 4 180.0000771 4.6024000 2
20805 20807 20809 20810 1 180.0000771 15.1670000 2
20808 20807 20809 20810 1 180.0000771 15.1670000 2
20800 20809 20807 20805 1 180.0000771 15.1670000 2
20800 20809 20807 20808 1 180.0000771 15.1670000 2
20805 20809 20807 20808 4 180.0000771 4.6024000 2
20811 20812 20813 20814 1 180.0000771 15.1670000 2
20811 20812 20813 20815 1 180.0000771 15.1670000 2
20814 20812 20813 20815 4 180.0000771 4.6024000 2
20811 20812 20821 20813 4 180.0000771 4.6024000 2
20811 20812 20821 20819 1 180.0000771 15.1670000 2
20811 20812 20821 20822 1 180.0000771 15.1670000 2
20813 20812 20821 20819 1 180.0000771 15.1670000 2
20813 20812 20821 20822 1 180.0000771 15.1670000 2
20814 20813 20812 20821 1 180.0000771 15.1670000 2
20815 20813 20812 20821 1 180.0000771 15.1670000 2
20812 20813 20815 20816 1 180.0000771 15.1670000 2
20812 20813 20815 20817 1 180.0000771 15.1670000 2
20814 20813 20815 20816 1 180.0000771 15.1670000 2
20814 20813 20815 20817 1 180.0000771 15.1670000 2
20813 20815 20817 20818 1 180.0000771 15.1670000 2
20813 20815 20817 20819 1 180.0000771 15.1670000 2
20816 20815 20817 20818 1 180.0000771 15.1670000 2
20816 20815 20817 20819 1 180.0000771 15.1670000 2
20813 20817 20815 20816 4 180.0000771 4.6024000 2
20815 20817 20819 20820 1 180.0000771 15.1670000 2
20815 20817 20819 20821 1 180.0000771 15.1670000 2
20818 20817 20819 20820 1 180.0000771 15.1670000 2
20818 20817 20819 20821 1 180.0000771 15.1670000 2
20815 20819 20817 20818 4 180.0000771 4.6024000 2
20812 20819 20821 20822 4 180.0000771 4.6024000 2
20817 20819 20821 20822 1 180.0000771 15.1670000 2
20820 20819 20821 20822 1 180.0000771 15.1670000 2
20812 20821 20819 20817 1 180.0000771 15.1670000 2
20812 20821 20819 20820 1 180.0000771 15.1670000 2
20817 20821 20819 20820 4 180.0000771 4.6024000 2
20823 20824 20825 20826 1 180.0000771 15.1670000 2
20823 20824 20825 20827 1 180.0000771 15.1670000 2
20826 20824 20825 20827 4 180.0000771 4.6024000 2
20823 20824 20833 20825 4 180.0000771 4.6024000 2
20823 20824 20833 20831 1 180.0000771 15.1670000 2
20823 20824 20833 20834 1 180.0000771 15.1670000 2
20825 20824 20833 20831 1 180.0000771 15.1670000 2
20825 20824 20833 20834 1 180.0000771 15.1670000 2
20826 20825 20824 20833 1 180.0000771 15.1670000 2
20827 20825 20824 20833 1 180.0000771 15.1670000 2
20824 20825 20827 20828 1 180.0000771 15.1670000 2
20824 20825 20827 20829 1 180.0000771 15.1670000 2
20826 20825 20827 20828 1 180.0000771 15.1670000 2
20826 20825 20827 20829 1 180.0000771 15.1670000 2
20825 20827 20829 20830 1 180.0000771 15.1670000 2
20825 20827 20829 20831 1 180.0000771 15.1670000 2
20828 20827 20829 20830 1 180.0000771 15.1670000 2
20828 20827 20829 20831 1 180.0000771 15.1670000 2
20825 20829 20827 20828 4 180.0000771 4.6024000 2
20827 20829 20831 20832 1 180.0000771 15.1670000 2
20827 20829 20831 20833 1 180.0000771 15.1670000 2
20830 20829 20831 20832 1 180.0000771 15.1670000 2
20830 20829 20831 20833 1 180.0000771 15.1670000 2
20827 20831 20829 20830 4 180.0000771 4.6024000 2
20824 20831 20833 20834 4 180.0000771 4.6024000 2
20829 20831 20833 20834 1 180.0000771 15.1670000 2
20832 20831 20833 20834 1 180.0000771 15.1670000 2
20824 20833 20831 20829 1 180.0000771 15.1670000 2
20824 20833 20831 20832 1 180.0000771 15.1670000 2
20829 20833 20831 20832 4 180.0000771 4.6024000 2
20835 20836 20837 20838 1 180.0000771 15.1670000 2
20835 20836 20837 20839 1 180.0000771 15.1670000 2
20838 20836 20837 20839 4 180.0000771 4.6024000 2
20835 20836 20845 20837 4 180.0000771 4.6024000 2
20835 20836 20845 20843 1 180.0000771 15.1670000 2
20835 20836 20845 20846 1 180.0000771 15.1670000 2
20837 20836 20845 20843 1 180.0000771 15.1670000 2
20837 20836 20845 20846 1 180.0000771 15.1670000 2
20838 20837 20836 20845 1 180.0000771 15.1670000 2
20839 20837 20836 20845 1 180.0000771 15.1670000 2
20836 20837 20839 20840 1 180.0000771 15.1670000 2
20836 20837 20839 20841 1 180.0000771 15.1670000 2
20838 20837 20839 20840 1 180.0000771 15.1670000 2
20838 20837 20839 20841 1 180.0000771 15.1670000 2
20837 20839 20841 20842 1 180.0000771 15.1670000 2
20837 20839 20841 20843 1 180.0000771 15.1670000 2
20840 20839 20841 20842 1 180.0000771 15.1670000 2
20840 20839 20841 20843 1 180.0000771 15.1670000 2
20837 20841 20839 20840 4 180.0000771 4.6024000 2
20839 20841 20843 20844 1 180.0000771 15.1670000 2
20839 20841 20843 20845 1 180.0000771 15.1670000 2
20842 20841 20843 20844 1 180.0000771 15.1670000 2
20842 20841 20843 20845 1 180.0000771 15.1670000 2
20839 20843 20841 20842 4 180.0000771 4.6024000 2
20836 20843 20845 20846 4 180.0000771 4.6024000 2
20841 20843 20845 20846 1 180.0000771 15.1670000 2
20844 20843 20845 20846 1 180.0000771 15.1670000 2
20836 20845 20843 20841 1 180.0000771 15.1670000 2
20836 20845 20843 20844 1 180.0000771 15.1670000 2
20841 20845 20843 20844 4 180.0000771 4.6024000 2
20847 20848 20849 20850 1 180.0000771 15.1670000 2
20847 20848 20849 20851 1 180.0000771 15.1670000 2
20850 20848 20849 20851 4 180.0000771 4.6024000 2
20847 20848 20857 20849 4 180.0000771 4.6024000 2
20847 20848 20857 20855 1 180.0000771 15.1670000 2
20847 20848 20857 20858 1 180.0000771 15.1670000 2
20849 20848 20857 20855 1 180.0000771 15.1670000 2
20849 20848 20857 20858 1 180.0000771 15.1670000 2
20850 20849 20848 20857 1 180.0000771 15.1670000 2
20851 20849 20848 20857 1 180.0000771 15.1670000 2
20848 20849 20851 20852 1 180.0000771 15.1670000 2
20848 20849 20851 20853 1 180.0000771 15.1670000 2
20850 20849 20851 20852 1 180.0000771 15.1670000 2
20850 20849 20851 20853 1 180.0000771 15.1670000 2
20849 20851 20853 20854 1 180.0000771 15.1670000 2
20849 20851 20853 20855 1 180.0000771 15.1670000 2
20852 20851 20853 20854 1 180.0000771 15.1670000 2
20852 20851 20853 20855 1 180.0000771 15.1670000 2
20849 20853 20851 20852 4 180.0000771 4.6024000 2
20851 20853 20855 20856 1 180.0000771 15.1670000 2
20851 20853 20855 20857 1 180.0000771 15.1670000 2
20854 20853 20855 20856 1 180.0000771 15.1670000 2
20854 20853 20855 20857 1 180.0000771 15.1670000 2
20851 20855 20853 20854 4 180.0000771 4.6024000 2
20848 20855 20857 20858 4 180.0000771 4.6024000 2
20853 20855 20857 20858 1 180.0000771 15.1670000 2
20856 20855 20857 20858 1 180.0000771 15.1670000 2
20848 20857 20855 20853 1 180.0000771 15.1670000 2
20848 20857 20855 20856 1 180.0000771 15.1670000 2
20853 20857 20855 20856 4 180.0000771 4.6024000 2
20859 20860 20861 20862 1 180.0000771 15.1670000 2
20859 20860 20861 20863 1 180.0000771 15.1670000 2
20862 20860 20861 20863 4 180.0000771 4.6024000 2
20859 20860 20869 20861 4 180.0000771 4.6024000 2
20859 20860 20869 20867 1 180.0000771 15.1670000 2
20859 20860 20869 20870 1 180.0000771 15.1670000 2
20861 20860 20869 20867 1 180.0000771 15.1670000 2
20861 20860 20869 20870 1 180.0000771 15.1670000 2
20862 20861 20860 20869 1 180.0000771 15.1670000 2
20863 20861 20860 20869 1 180.0000771 15.1670000 2
20860 20861 20863 20864 1 180.0000771 15.1670000 2
20860 20861 20863 20865 1 180.0000771 15.1670000 2
20862 20861 20863 20864 1 180.0000771 15.1670000 2
20862 20861 20863 20865 1 180.0000771 15.1670000 2
20861 20863 20865 20866 1 180.0000771 15.1670000 2
20861 20863 20865 20867 1 180.0000771 15.1670000 2
20864 20863 20865 20866 1 180.0000771 15.1670000 2
20864 20863 20865 20867 1 180.0000771 15.1670000 2
20861 20865 20863 20864 4 180.0000771 4.6024000 2
20863 20865 20867 20868 1 180.0000771 15.1670000 2
20863 20865 20867 20869 1 180.0000771 15.1670000 2
20866 20865 20867 20868 1 180.0000771 15.1670000 2
20866 20865 20867 20869 1 180.0000771 15.1670000 2
20863 20867 20865 20866 4 180.0000771 4.6024000 2
20860 20867 20869 20870 4 180.0000771 4.6024000 2
20865 20867 20869 20870 1 180.0000771 15.1670000 2
20868 20867 20869 20870 1 180.0000771 15.1670000 2
20860 20869 20867 20865 1 180.0000771 15.1670000 2
20860 20869 20867 20868 1 180.0000771 15.1670000 2
20865 20869 20867 20868 4 180.0000771 4.6024000 2
20871 20872 20873 20874 1 180.0000771 15.1670000 2
20871 20872 20873 20875 1 180.0000771 15.1670000 2
20874 20872 20873 20875 4 180.0000771 4.6024000 2
20871 20872 20881 20873 4 180.0000771 4.6024000 2
20871 20872 20881 20879 1 180.0000771 15.1670000 2
20871 20872 20881 20882 1 180.0000771 15.1670000 2
20873 20872 20881 20879 1 180.0000771 15.1670000 2
20873 20872 20881 20882 1 180.0000771 15.1670000 2
20874 20873 20872 20881 1 180.0000771 15.1670000 2
20875 20873 20872 20881 1 180.0000771 15.1670000 2
20872 20873 20875 20876 1 180.0000771 15.1670000 2
20872 20873 20875 20877 1 180.0000771 15.1670000 2
20874 20873 20875 20876 1 180.0000771 15.1670000 2
20874 20873 20875 20877 1 180.0000771 15.1670000 2
20873 20875 20877 20878 1 180.0000771 15.1670000 2
20873 20875 20877 20879 1 180.0000771 15.1670000 2
20876 20875 20877 20878 1 180.0000771 15.1670000 2
20876 20875 20877 20879 1 180.0000771 15.1670000 2
20873 20877 20875 20876 4 180.0000771 4.6024000 2
20875 20877 20879 20880 1 180.0000771 15.1670000 2
20875 20877 20879 20881 1 180.0000771 15.1670000 2
20878 20877 20879 20880 1 180.0000771 15.1670000 2
20878 20877 20879 20881 1 180.0000771 15.1670000 2
20875 20879 20877 20878 4 180.0000771 4.6024000 2
20872 20879 20881 20882 4 180.0000771 4.6024000 2
20877 20879 20881 20882 1 180.0000771 15.1670000 2
20880 20879 20881 20882 1 180.0000771 15.1670000 2
20872 20881 20879 20877 1 180.0000771 15.1670000 2
20872 20881 20879 20880 1 180.0000771 15.1670000 2
20877 20881 20879 20880 4 180.0000771 4.6024000 2
20883 20884 20885 20886 1 180.0000771 15.1670000 2
20883 20884 20885 20887 1 180.0000771 15.1670000 2
20886 20884 20885 20887 4 180.0000771 4.6024000 2
20883 20884 20893 20885 4 180.0000771 4.6024000 2
20883 20884 20893 20891 1 180.0000771 15.1670000 2
20883 20884 20893 20894 1 180.0000771 15.1670000 2
20885 20884 20893 20891 1 180.0000771 15.1670000 2
20885 20884 20893 20894 1 180.0000771 15.1670000 2
20886 20885 20884 20893 1 180.0000771 15.1670000 2
20887 20885 20884 20893 1 180.0000771 15.1670000 2
20884 20885 20887 20888 1 180.0000771 15.1670000 2
20884 20885 20887 20889 1 180.0000771 15.1670000 2
20886 20885 20887 20888 1 180.0000771 15.1670000 2
20886 20885 20887 20889 1 180.0000771 15.1670000 2
20885 20887 20889 20890 1 180.0000771 15.1670000 2
20885 20887 20889 20891 1 180.0000771 15.1670000 2
20888 20887 20889 20890 1 180.0000771 15.1670000 2
20888 20887 20889 20891 1 180.0000771 15.1670000 2
20885 20889 20887 20888 4 180.0000771 4.6024000 2
20887 20889 20891 20892 1 180.0000771 15.1670000 2
20887 20889 20891 20893 1 180.0000771 15.1670000 2
20890 20889 20891 20892 1 180.0000771 15.1670000 2
20890 20889 20891 20893 1 180.0000771 15.1670000 2
20887 20891 20889 20890 4 180.0000771 4.6024000 2
20884 20891 20893 20894 4 180.0000771 4.6024000 2
20889 20891 20893 20894 1 180.0000771 15.1670000 2
20892 20891 20893 20894 1 180.0000771 15.1670000 2
20884 20893 20891 20889 1 180.0000771 15.1670000 2
20884 20893 20891 20892 1 180.0000771 15.1670000 2
20889 20893 20891 20892 4 180.0000771 4.6024000 2
20895 20896 20897 20898 1 180.0000771 15.1670000 2
20895 20896 20897 20899 1 180.0000771 15.1670000 2
20898 20896 20897 20899 4 180.0000771 4.6024000 2
20895 20896 20905 20897 4 180.0000771 4.6024000 2
20895 20896 20905 20903 1 180.0000771 15.1670000 2
20895 20896 20905 20906 1 180.0000771 15.1670000 2
20897 20896 20905 20903 1 180.0000771 15.1670000 2
20897 20896 20905 20906 1 180.0000771 15.1670000 2
20898 20897 20896 20905 1 180.0000771 15.1670000 2
20899 20897 20896 20905 1 180.0000771 15.1670000 2
20896 20897 20899 20900 1 180.0000771 15.1670000 2
20896 20897 20899 20901 1 180.0000771 15.1670000 2
20898 20897 20899 20900 1 180.0000771 15.1670000 2
20898 20897 20899 20901 1 180.0000771 15.1670000 2
20897 20899 20901 20902 1 180.0000771 15.1670000 2
20897 20899 20901 20903 1 180.0000771 15.1670000 2
20900 20899 20901 20902 1 180.0000771 15.1670000 2
20900 20899 20901 20903 1 180.0000771 15.1670000 2
20897 20901 20899 20900 4 180.0000771 4.6024000 2
20899 20901 20903 20904 1 180.0000771 15.1670000 2
20899 20901 20903 20905 1 180.0000771 15.1670000 2
20902 20901 20903 20904 1 180.0000771 15.1670000 2
20902 20901 20903 20905 1 180.0000771 15.1670000 2
20899 20903 20901 20902 4 180.0000771 4.6024000 2
20896 20903 20905 20906 4 180.0000771 4.6024000 2
20901 20903 20905 20906 1 180.0000771 15.1670000 2
20904 20903 20905 20906 1 180.0000771 15.1670000 2
20896 20905 20903 20901 1 180.0000771 15.1670000 2
20896 20905 20903 20904 1 180.0000771 15.1670000 2
20901 20905 20903 20904 4 180.0000771 4.6024000 2
20907 20908 20909 20910 1 180.0000771 15.1670000 2
20907 20908 20909 20911 1 180.0000771 15.1670000 2
20910 20908 20909 20911 4 180.0000771 4.6024000 2
20907 20908 20917 20909 4 180.0000771 4.6024000 2
20907 20908 20917 20915 1 180.0000771 15.1670000 2
20907 20908 20917 20918 1 180.0000771 15.1670000 2
20909 20908 20917 20915 1 180.0000771 15.1670000 2
20909 20908 20917 20918 1 180.0000771 15.1670000 2
20910 20909 20908 20917 1 180.0000771 15.1670000 2
20911 20909 20908 20917 1 180.0000771 15.1670000 2
20908 20909 20911 20912 1 180.0000771 15.1670000 2
20908 20909 20911 20913 1 180.0000771 15.1670000 2
20910 20909 20911 20912 1 180.0000771 15.1670000 2
20910 20909 20911 20913 1 180.0000771 15.1670000 2
20909 20911 20913 20914 1 180.0000771 15.1670000 2
20909 20911 20913 20915 1 180.0000771 15.1670000 2
20912 20911 20913 20914 1 180.0000771 15.1670000 2
20912 20911 20913 20915 1 180.0000771 15.1670000 2
20909 20913 20911 20912 4 180.0000771 4.6024000 2
20911 20913 20915 20916 1 180.0000771 15.1670000 2
20911 20913 20915 20917 1 180.0000771 15.1670000 2
20914 20913 20915 20916 1 180.0000771 15.1670000 2
20914 20913 20915 20917 1 180.0000771 15.1670000 2
20911 20915 20913 20914 4 180.0000771 4.6024000 2
20908 20915 20917 20918 4 180.0000771 4.6024000 2
20913 20915 20917 20918 1 180.0000771 15.1670000 2
20916 20915 20917 20918 1 180.0000771 15.1670000 2
20908 20917 20915 20913 1 180.0000771 15.1670000 2
20908 20917 20915 20916 1 180.0000771 15.1670000 2
20913 20917 20915 20916 4 180.0000771 4.6024000 2
20919 20920 20921 20922 1 180.0000771 15.1670000 2
20919 20920 20921 20923 1 180.0000771 15.1670000 2
20922 20920 20921 20923 4 180.0000771 4.6024000 2
20919 20920 20929 20921 4 180.0000771 4.6024000 2
20919 20920 20929 20927 1 180.0000771 15.1670000 2
20919 20920 20929 20930 1 180.0000771 15.1670000 2
20921 20920 20929 20927 1 180.0000771 15.1670000 2
20921 20920 20929 20930 1 180.0000771 15.1670000 2
20922 20921 20920 20929 1 180.0000771 15.1670000 2
20923 20921 20920 20929 1 180.0000771 15.1670000 2
20920 20921 20923 20924 1 180.0000771 15.1670000 2
20920 20921 20923 20925 1 180.0000771 15.1670000 2
20922 20921 20923 20924 1 180.0000771 15.1670000 2
20922 20921 20923 20925 1 180.0000771 15.1670000 2
20921 20923 20925 20926 1 180.0000771 15.1670000 2
20921 20923 20925 20927 1 180.0000771 15.1670000 2
20924 20923 20925 20926 1 180.0000771 15.1670000 2
20924 20923 20925 20927 1 180.0000771 15.1670000 2
20921 20925 20923 20924 4 180.0000771 4.6024000 2
20923 20925 20927 20928 1 180.0000771 15.1670000 2
20923 20925 20927 20929 1 180.0000771 15.1670000 2
20926 20925 20927 20928 1 180.0000771 15.1670000 2
20926 20925 20927 20929 1 180.0000771 15.1670000 2
20923 20927 20925 20926 4 180.0000771 4.6024000 2
20920 20927 20929 20930 4 180.0000771 4.6024000 2
20925 20927 20929 20930 1 180.0000771 15.1670000 2
20928 20927 20929 20930 1 180.0000771 15.1670000 2
20920 20929 20927 20925 1 180.0000771 15.1670000 2
20920 20929 20927 20928 1 180.0000771 15.1670000 2
20925 20929 20927 20928 4 180.0000771 4.6024000 2
20931 20932 20933 20934 1 180.0000771 15.1670000 2
20931 20932 20933 20935 1 180.0000771 15.1670000 2
20934 20932 20933 20935 4 180.0000771 4.6024000 2
20931 20932 20941 20933 4 180.0000771 4.6024000 2
20931 20932 20941 20939 1 180.0000771 15.1670000 2
20931 20932 20941 20942 1 180.0000771 15.1670000 2
20933 20932 20941 20939 1 180.0000771 15.1670000 2
20933 20932 20941 20942 1 180.0000771 15.1670000 2
20934 20933 20932 20941 1 180.0000771 15.1670000 2
20935 20933 20932 20941 1 180.0000771 15.1670000 2
20932 20933 20935 20936 1 180.0000771 15.1670000 2
20932 20933 20935 20937 1 180.0000771 15.1670000 2
20934 20933 20935 20936 1 180.0000771 15.1670000 2
20934 20933 20935 20937 1 180.0000771 15.1670000 2
20933 20935 20937 20938 1 180.0000771 15.1670000 2
20933 20935 20937 20939 1 180.0000771 15.1670000 2
20936 20935 20937 20938 1 180.0000771 15.1670000 2
20936 20935 20937 20939 1 180.0000771 15.1670000 2
20933 20937 20935 20936 4 180.0000771 4.6024000 2
20935 20937 20939 20940 1 180.0000771 15.1670000 2
20935 20937 20939 20941 1 180.0000771 15.1670000 2
20938 20937 20939 20940 1 180.0000771 15.1670000 2
20938 20937 20939 20941 1 180.0000771 15.1670000 2
20935 20939 20937 20938 4 180.0000771 4.6024000 2
20932 20939 20941 20942 4 180.0000771 4.6024000 2
20937 20939 20941 20942 1 180.0000771 15.1670000 2
20940 20939 20941 20942 1 180.0000771 15.1670000 2
20932 20941 20939 20937 1 180.0000771 15.1670000 2
20932 20941 20939 20940 1 180.0000771 15.1670000 2
20937 20941 20939 20940 4 180.0000771 4.6024000 2
20943 20944 20945 20946 1 180.0000771 15.1670000 2
20943 20944 20945 20947 1 180.0000771 15.1670000 2
20946 20944 20945 20947 4 180.0000771 4.6024000 2
20943 20944 20953 20945 4 180.0000771 4.6024000 2
20943 20944 20953 20951 1 180.0000771 15.1670000 2
20943 20944 20953 20954 1 180.0000771 15.1670000 2
20945 20944 20953 20951 1 180.0000771 15.1670000 2
20945 20944 20953 20954 1 180.0000771 15.1670000 2
20946 20945 20944 20953 1 180.0000771 15.1670000 2
20947 20945 20944 20953 1 180.0000771 15.1670000 2
20944 20945 20947 20948 1 180.0000771 15.1670000 2
20944 20945 20947 20949 1 180.0000771 15.1670000 2
20946 20945 20947 20948 1 180.0000771 15.1670000 2
20946 20945 20947 20949 1 180.0000771 15.1670000 2
20945 20947 20949 20950 1 180.0000771 15.1670000 2
20945 20947 20949 20951 1 180.0000771 15.1670000 2
20948 20947 20949 20950 1 180.0000771 15.1670000 2
20948 20947 20949 20951 1 180.0000771 15.1670000 2
20945 20949 20947 20948 4 180.0000771 4.6024000 2
20947 20949 20951 20952 1 180.0000771 15.1670000 2
20947 20949 20951 20953 1 180.0000771 15.1670000 2
20950 20949 20951 20952 1 180.0000771 15.1670000 2
20950 20949 20951 20953 1 180.0000771 15.1670000 2
20947 20951 20949 20950 4 180.0000771 4.6024000 2
20944 20951 20953 20954 4 180.0000771 4.6024000 2
20949 20951 20953 20954 1 180.0000771 15.1670000 2
20952 20951 20953 20954 1 180.0000771 15.1670000 2
20944 20953 20951 20949 1 180.0000771 15.1670000 2
20944 20953 20951 20952 1 180.0000771 15.1670000 2
20949 20953 20951 20952 4 180.0000771 4.6024000 2
20955 20956 20957 20958 1 180.0000771 15.1670000 2
20955 20956 20957 20959 1 180.0000771 15.1670000 2
20958 20956 20957 20959 4 180.0000771 4.6024000 2
20955 20956 20965 20957 4 180.0000771 4.6024000 2
20955 20956 20965 20963 1 180.0000771 15.1670000 2
20955 20956 20965 20966 1 180.0000771 15.1670000 2
20957 20956 20965 20963 1 180.0000771 15.1670000 2
20957 20956 20965 20966 1 180.0000771 15.1670000 2
20958 20957 20956 20965 1 180.0000771 15.1670000 2
20959 20957 20956 20965 1 180.0000771 15.1670000 2
20956 20957 20959 20960 1 180.0000771 15.1670000 2
20956 20957 20959 20961 1 180.0000771 15.1670000 2
20958 20957 20959 20960 1 180.0000771 15.1670000 2
20958 20957 20959 20961 1 180.0000771 15.1670000 2
20957 20959 20961 20962 1 180.0000771 15.1670000 2
20957 20959 20961 20963 1 180.0000771 15.1670000 2
20960 20959 20961 20962 1 180.0000771 15.1670000 2
20960 20959 20961 20963 1 180.0000771 15.1670000 2
20957 20961 20959 20960 4 180.0000771 4.6024000 2
20959 20961 20963 20964 1 180.0000771 15.1670000 2
20959 20961 20963 20965 1 180.0000771 15.1670000 2
20962 20961 20963 20964 1 180.0000771 15.1670000 2
20962 20961 20963 20965 1 180.0000771 15.1670000 2
20959 20963 20961 20962 4 180.0000771 4.6024000 2
20956 20963 20965 20966 4 180.0000771 4.6024000 2
20961 20963 20965 20966 1 180.0000771 15.1670000 2
20964 20963 20965 20966 1 180.0000771 15.1670000 2
20956 20965 20963 20961 1 180.0000771 15.1670000 2
20956 20965 20963 20964 1 180.0000771 15.1670000 2
20961 20965 20963 20964 4 180.0000771 4.6024000 2
20967 20968 20969 20970 1 180.0000771 15.1670000 2
20967 20968 20969 20971 1 180.0000771 15.1670000 2
20970 20968 20969 20971 4 180.0000771 4.6024000 2
20967 20968 20977 20969 4 180.0000771 4.6024000 2
20967 20968 20977 20975 1 180.0000771 15.1670000 2
20967 20968 20977 20978 1 180.0000771 15.1670000 2
20969 20968 20977 20975 1 180.0000771 15.1670000 2
20969 20968 20977 20978 1 180.0000771 15.1670000 2
20970 20969 20968 20977 1 180.0000771 15.1670000 2
20971 20969 20968 20977 1 180.0000771 15.1670000 2
20968 20969 20971 20972 1 180.0000771 15.1670000 2
20968 20969 20971 20973 1 180.0000771 15.1670000 2
20970 20969 20971 20972 1 180.0000771 15.1670000 2
20970 20969 20971 20973 1 180.0000771 15.1670000 2
20969 20971 20973 20974 1 180.0000771 15.1670000 2
20969 20971 20973 20975 1 180.0000771 15.1670000 2
20972 20971 20973 20974 1 180.0000771 15.1670000 2
20972 20971 20973 20975 1 180.0000771 15.1670000 2
20969 20973 20971 20972 4 180.0000771 4.6024000 2
20971 20973 20975 20976 1 180.0000771 15.1670000 2
20971 20973 20975 20977 1 180.0000771 15.1670000 2
20974 20973 20975 20976 1 180.0000771 15.1670000 2
20974 20973 20975 20977 1 180.0000771 15.1670000 2
20971 20975 20973 20974 4 180.0000771 4.6024000 2
20968 20975 20977 20978 4 180.0000771 4.6024000 2
20973 20975 20977 20978 1 180.0000771 15.1670000 2
20976 20975 20977 20978 1 180.0000771 15.1670000 2
20968 20977 20975 20973 1 180.0000771 15.1670000 2
20968 20977 20975 20976 1 180.0000771 15.1670000 2
20973 20977 20975 20976 4 180.0000771 4.6024000 2
20979 20980 20981 20982 1 180.0000771 15.1670000 2
20979 20980 20981 20983 1 180.0000771 15.1670000 2
20982 20980 20981 20983 4 180.0000771 4.6024000 2
20979 20980 20989 20981 4 180.0000771 4.6024000 2
20979 20980 20989 20987 1 180.0000771 15.1670000 2
20979 20980 20989 20990 1 180.0000771 15.1670000 2
20981 20980 20989 20987 1 180.0000771 15.1670000 2
20981 20980 20989 20990 1 180.0000771 15.1670000 2
20982 20981 20980 20989 1 180.0000771 15.1670000 2
20983 20981 20980 20989 1 180.0000771 15.1670000 2
20980 20981 20983 20984 1 180.0000771 15.1670000 2
20980 20981 20983 20985 1 180.0000771 15.1670000 2
20982 20981 20983 20984 1 180.0000771 15.1670000 2
20982 20981 20983 20985 1 180.0000771 15.1670000 2
20981 20983 20985 20986 1 180.0000771 15.1670000 2
20981 20983 20985 20987 1 180.0000771 15.1670000 2
20984 20983 20985 20986 1 180.0000771 15.1670000 2
20984 20983 20985 20987 1 180.0000771 15.1670000 2
20981 20985 20983 20984 4 180.0000771 4.6024000 2
20983 20985 20987 20988 1 180.0000771 15.1670000 2
20983 20985 20987 20989 1 180.0000771 15.1670000 2
20986 20985 20987 20988 1 180.0000771 15.1670000 2
20986 20985 20987 20989 1 180.0000771 15.1670000 2
20983 20987 20985 20986 4 180.0000771 4.6024000 2
20980 20987 20989 20990 4 180.0000771 4.6024000 2
20985 20987 20989 20990 1 180.0000771 15.1670000 2
20988 20987 20989 20990 1 180.0000771 15.1670000 2
20980 20989 20987 20985 1 180.0000771 15.1670000 2
20980 20989 20987 20988 1 180.0000771 15.1670000 2
20985 20989 20987 20988 4 180.0000771 4.6024000 2
20991 20992 20993 20994 1 180.0000771 15.1670000 2
20991 20992 20993 20995 1 180.0000771 15.1670000 2
20994 20992 20993 20995 4 180.0000771 4.6024000 2
20991 20992 21001 20993 4 180.0000771 4.6024000 2
20991 20992 21001 20999 1 180.0000771 15.1670000 2
20991 20992 21001 21002 1 180.0000771 15.1670000 2
20993 20992 21001 20999 1 180.0000771 15.1670000 2
20993 20992 21001 21002 1 180.0000771 15.1670000 2
20994 20993 20992 21001 1 180.0000771 15.1670000 2
20995 20993 20992 21001 1 180.0000771 15.1670000 2
20992 20993 20995 20996 1 180.0000771 15.1670000 2
20992 20993 20995 20997 1 180.0000771 15.1670000 2
20994 20993 20995 20996 1 180.0000771 15.1670000 2
20994 20993 20995 20997 1 180.0000771 15.1670000 2
20993 20995 20997 20998 1 180.0000771 15.1670000 2
20993 20995 20997 20999 1 180.0000771 15.1670000 2
20996 20995 20997 20998 1 180.0000771 15.1670000 2
20996 20995 20997 20999 1 180.0000771 15.1670000 2
20993 20997 20995 20996 4 180.0000771 4.6024000 2
20995 20997 20999 21000 1 180.0000771 15.1670000 2
20995 20997 20999 21001 1 180.0000771 15.1670000 2
20998 20997 20999 21000 1 180.0000771 15.1670000 2
20998 20997 20999 21001 1 180.0000771 15.1670000 2
20995 20999 20997 20998 4 180.0000771 4.6024000 2
20992 20999 21001 21002 4 180.0000771 4.6024000 2
20997 20999 21001 21002 1 180.0000771 15.1670000 2
21000 20999 21001 21002 1 180.0000771 15.1670000 2
20992 21001 20999 20997 1 180.0000771 15.1670000 2
20992 21001 20999 21000 1 180.0000771 15.1670000 2
20997 21001 20999 21000 4 180.0000771 4.6024000 2
21003 21004 21005 21006 1 180.0000771 15.1670000 2
21003 21004 21005 21007 1 180.0000771 15.1670000 2
21006 21004 21005 21007 4 180.0000771 4.6024000 2
21003 21004 21013 21005 4 180.0000771 4.6024000 2
21003 21004 21013 21011 1 180.0000771 15.1670000 2
21003 21004 21013 21014 1 180.0000771 15.1670000 2
21005 21004 21013 21011 1 180.0000771 15.1670000 2
21005 21004 21013 21014 1 180.0000771 15.1670000 2
21006 21005 21004 21013 1 180.0000771 15.1670000 2
21007 21005 21004 21013 1 180.0000771 15.1670000 2
21004 21005 21007 21008 1 180.0000771 15.1670000 2
21004 21005 21007 21009 1 180.0000771 15.1670000 2
21006 21005 21007 21008 1 180.0000771 15.1670000 2
21006 21005 21007 21009 1 180.0000771 15.1670000 2
21005 21007 21009 21010 1 180.0000771 15.1670000 2
21005 21007 21009 21011 1 180.0000771 15.1670000 2
21008 21007 21009 21010 1 180.0000771 15.1670000 2
21008 21007 21009 21011 1 180.0000771 15.1670000 2
21005 21009 21007 21008 4 180.0000771 4.6024000 2
21007 21009 21011 21012 1 180.0000771 15.1670000 2
21007 21009 21011 21013 1 180.0000771 15.1670000 2
21010 21009 21011 21012 1 180.0000771 15.1670000 2
21010 21009 21011 21013 1 180.0000771 15.1670000 2
21007 21011 21009 21010 4 180.0000771 4.6024000 2
21004 21011 21013 21014 4 180.0000771 4.6024000 2
21009 21011 21013 21014 1 180.0000771 15.1670000 2
21012 21011 21013 21014 1 180.0000771 15.1670000 2
21004 21013 21011 21009 1 180.0000771 15.1670000 2
21004 21013 21011 21012 1 180.0000771 15.1670000 2
21009 21013 21011 21012 4 180.0000771 4.6024000 2
21015 21016 21017 21018 1 180.0000771 15.1670000 2
21015 21016 21017 21019 1 180.0000771 15.1670000 2
21018 21016 21017 21019 4 180.0000771 4.6024000 2
21015 21016 21025 21017 4 180.0000771 4.6024000 2
21015 21016 21025 21023 1 180.0000771 15.1670000 2
21015 21016 21025 21026 1 180.0000771 15.1670000 2
21017 21016 21025 21023 1 180.0000771 15.1670000 2
21017 21016 21025 21026 1 180.0000771 15.1670000 2
21018 21017 21016 21025 1 180.0000771 15.1670000 2
21019 21017 21016 21025 1 180.0000771 15.1670000 2
21016 21017 21019 21020 1 180.0000771 15.1670000 2
21016 21017 21019 21021 1 180.0000771 15.1670000 2
21018 21017 21019 21020 1 180.0000771 15.1670000 2
21018 21017 21019 21021 1 180.0000771 15.1670000 2
21017 21019 21021 21022 1 180.0000771 15.1670000 2
21017 21019 21021 21023 1 180.0000771 15.1670000 2
21020 21019 21021 21022 1 180.0000771 15.1670000 2
21020 21019 21021 21023 1 180.0000771 15.1670000 2
21017 21021 21019 21020 4 180.0000771 4.6024000 2
21019 21021 21023 21024 1 180.0000771 15.1670000 2
21019 21021 21023 21025 1 180.0000771 15.1670000 2
21022 21021 21023 21024 1 180.0000771 15.1670000 2
21022 21021 21023 21025 1 180.0000771 15.1670000 2
21019 21023 21021 21022 4 180.0000771 4.6024000 2
21016 21023 21025 21026 4 180.0000771 4.6024000 2
21021 21023 21025 21026 1 180.0000771 15.1670000 2
21024 21023 21025 21026 1 180.0000771 15.1670000 2
21016 21025 21023 21021 1 180.0000771 15.1670000 2
21016 21025 21023 21024 1 180.0000771 15.1670000 2
21021 21025 21023 21024 4 180.0000771 4.6024000 2
21027 21028 21029 21030 1 180.0000771 15.1670000 2
21027 21028 21029 21031 1 180.0000771 15.1670000 2
21030 21028 21029 21031 4 180.0000771 4.6024000 2
21027 21028 21037 21029 4 180.0000771 4.6024000 2
21027 21028 21037 21035 1 180.0000771 15.1670000 2
21027 21028 21037 21038 1 180.0000771 15.1670000 2
21029 21028 21037 21035 1 180.0000771 15.1670000 2
21029 21028 21037 21038 1 180.0000771 15.1670000 2
21030 21029 21028 21037 1 180.0000771 15.1670000 2
21031 21029 21028 21037 1 180.0000771 15.1670000 2
21028 21029 21031 21032 1 180.0000771 15.1670000 2
21028 21029 21031 21033 1 180.0000771 15.1670000 2
21030 21029 21031 21032 1 180.0000771 15.1670000 2
21030 21029 21031 21033 1 180.0000771 15.1670000 2
21029 21031 21033 21034 1 180.0000771 15.1670000 2
21029 21031 21033 21035 1 180.0000771 15.1670000 2
21032 21031 21033 21034 1 180.0000771 15.1670000 2
21032 21031 21033 21035 1 180.0000771 15.1670000 2
21029 21033 21031 21032 4 180.0000771 4.6024000 2
21031 21033 21035 21036 1 180.0000771 15.1670000 2
21031 21033 21035 21037 1 180.0000771 15.1670000 2
21034 21033 21035 21036 1 180.0000771 15.1670000 2
21034 21033 21035 21037 1 180.0000771 15.1670000 2
21031 21035 21033 21034 4 180.0000771 4.6024000 2
21028 21035 21037 21038 4 180.0000771 4.6024000 2
21033 21035 21037 21038 1 180.0000771 15.1670000 2
21036 21035 21037 21038 1 180.0000771 15.1670000 2
21028 21037 21035 21033 1 180.0000771 15.1670000 2
21028 21037 21035 21036 1 180.0000771 15.1670000 2
21033 21037 21035 21036 4 180.0000771 4.6024000 2
21039 21040 21041 21042 1 180.0000771 15.1670000 2
21039 21040 21041 21043 1 180.0000771 15.1670000 2
21042 21040 21041 21043 4 180.0000771 4.6024000 2
21039 21040 21049 21041 4 180.0000771 4.6024000 2
21039 21040 21049 21047 1 180.0000771 15.1670000 2
21039 21040 21049 21050 1 180.0000771 15.1670000 2
21041 21040 21049 21047 1 180.0000771 15.1670000 2
21041 21040 21049 21050 1 180.0000771 15.1670000 2
21042 21041 21040 21049 1 180.0000771 15.1670000 2
21043 21041 21040 21049 1 180.0000771 15.1670000 2
21040 21041 21043 21044 1 180.0000771 15.1670000 2
21040 21041 21043 21045 1 180.0000771 15.1670000 2
21042 21041 21043 21044 1 180.0000771 15.1670000 2
21042 21041 21043 21045 1 180.0000771 15.1670000 2
21041 21043 21045 21046 1 180.0000771 15.1670000 2
21041 21043 21045 21047 1 180.0000771 15.1670000 2
21044 21043 21045 21046 1 180.0000771 15.1670000 2
21044 21043 21045 21047 1 180.0000771 15.1670000 2
21041 21045 21043 21044 4 180.0000771 4.6024000 2
21043 21045 21047 21048 1 180.0000771 15.1670000 2
21043 21045 21047 21049 1 180.0000771 15.1670000 2
21046 21045 21047 21048 1 180.0000771 15.1670000 2
21046 21045 21047 21049 1 180.0000771 15.1670000 2
21043 21047 21045 21046 4 180.0000771 4.6024000 2
21040 21047 21049 21050 4 180.0000771 4.6024000 2
21045 21047 21049 21050 1 180.0000771 15.1670000 2
21048 21047 21049 21050 1 180.0000771 15.1670000 2
21040 21049 21047 21045 1 180.0000771 15.1670000 2
21040 21049 21047 21048 1 180.0000771 15.1670000 2
21045 21049 21047 21048 4 180.0000771 4.6024000 2
21051 21052 21053 21054 1 180.0000771 15.1670000 2
21051 21052 21053 21055 1 180.0000771 15.1670000 2
21054 21052 21053 21055 4 180.0000771 4.6024000 2
21051 21052 21061 21053 4 180.0000771 4.6024000 2
21051 21052 21061 21059 1 180.0000771 15.1670000 2
21051 21052 21061 21062 1 180.0000771 15.1670000 2
21053 21052 21061 21059 1 180.0000771 15.1670000 2
21053 21052 21061 21062 1 180.0000771 15.1670000 2
21054 21053 21052 21061 1 180.0000771 15.1670000 2
21055 21053 21052 21061 1 180.0000771 15.1670000 2
21052 21053 21055 21056 1 180.0000771 15.1670000 2
21052 21053 21055 21057 1 180.0000771 15.1670000 2
21054 21053 21055 21056 1 180.0000771 15.1670000 2
21054 21053 21055 21057 1 180.0000771 15.1670000 2
21053 21055 21057 21058 1 180.0000771 15.1670000 2
21053 21055 21057 21059 1 180.0000771 15.1670000 2
21056 21055 21057 21058 1 180.0000771 15.1670000 2
21056 21055 21057 21059 1 180.0000771 15.1670000 2
21053 21057 21055 21056 4 180.0000771 4.6024000 2
21055 21057 21059 21060 1 180.0000771 15.1670000 2
21055 21057 21059 21061 1 180.0000771 15.1670000 2
21058 21057 21059 21060 1 180.0000771 15.1670000 2
21058 21057 21059 21061 1 180.0000771 15.1670000 2
21055 21059 21057 21058 4 180.0000771 4.6024000 2
21052 21059 21061 21062 4 180.0000771 4.6024000 2
21057 21059 21061 21062 1 180.0000771 15.1670000 2
21060 21059 21061 21062 1 180.0000771 15.1670000 2
21052 21061 21059 21057 1 180.0000771 15.1670000 2
21052 21061 21059 21060 1 180.0000771 15.1670000 2
21057 21061 21059 21060 4 180.0000771 4.6024000 2
21063 21064 21065 21066 1 180.0000771 15.1670000 2
21063 21064 21065 21067 1 180.0000771 15.1670000 2
21066 21064 21065 21067 4 180.0000771 4.6024000 2
21063 21064 21073 21065 4 180.0000771 4.6024000 2
21063 21064 21073 21071 1 180.0000771 15.1670000 2
21063 21064 21073 21074 1 180.0000771 15.1670000 2
21065 21064 21073 21071 1 180.0000771 15.1670000 2
21065 21064 21073 21074 1 180.0000771 15.1670000 2
21066 21065 21064 21073 1 180.0000771 15.1670000 2
21067 21065 21064 21073 1 180.0000771 15.1670000 2
21064 21065 21067 21068 1 180.0000771 15.1670000 2
21064 21065 21067 21069 1 180.0000771 15.1670000 2
21066 21065 21067 21068 1 180.0000771 15.1670000 2
21066 21065 21067 21069 1 180.0000771 15.1670000 2
21065 21067 21069 21070 1 180.0000771 15.1670000 2
21065 21067 21069 21071 1 180.0000771 15.1670000 2
21068 21067 21069 21070 1 180.0000771 15.1670000 2
21068 21067 21069 21071 1 180.0000771 15.1670000 2
21065 21069 21067 21068 4 180.0000771 4.6024000 2
21067 21069 21071 21072 1 180.0000771 15.1670000 2
21067 21069 21071 21073 1 180.0000771 15.1670000 2
21070 21069 21071 21072 1 180.0000771 15.1670000 2
21070 21069 21071 21073 1 180.0000771 15.1670000 2
21067 21071 21069 21070 4 180.0000771 4.6024000 2
21064 21071 21073 21074 4 180.0000771 4.6024000 2
21069 21071 21073 21074 1 180.0000771 15.1670000 2
21072 21071 21073 21074 1 180.0000771 15.1670000 2
21064 21073 21071 21069 1 180.0000771 15.1670000 2
21064 21073 21071 21072 1 180.0000771 15.1670000 2
21069 21073 21071 21072 4 180.0000771 4.6024000 2
21075 21076 21077 21078 1 180.0000771 15.1670000 2
21075 21076 21077 21079 1 180.0000771 15.1670000 2
21078 21076 21077 21079 4 180.0000771 4.6024000 2
21075 21076 21085 21077 4 180.0000771 4.6024000 2
21075 21076 21085 21083 1 180.0000771 15.1670000 2
21075 21076 21085 21086 1 180.0000771 15.1670000 2
21077 21076 21085 21083 1 180.0000771 15.1670000 2
21077 21076 21085 21086 1 180.0000771 15.1670000 2
21078 21077 21076 21085 1 180.0000771 15.1670000 2
21079 21077 21076 21085 1 180.0000771 15.1670000 2
21076 21077 21079 21080 1 180.0000771 15.1670000 2
21076 21077 21079 21081 1 180.0000771 15.1670000 2
21078 21077 21079 21080 1 180.0000771 15.1670000 2
21078 21077 21079 21081 1 180.0000771 15.1670000 2
21077 21079 21081 21082 1 180.0000771 15.1670000 2
21077 21079 21081 21083 1 180.0000771 15.1670000 2
21080 21079 21081 21082 1 180.0000771 15.1670000 2
21080 21079 21081 21083 1 180.0000771 15.1670000 2
21077 21081 21079 21080 4 180.0000771 4.6024000 2
21079 21081 21083 21084 1 180.0000771 15.1670000 2
21079 21081 21083 21085 1 180.0000771 15.1670000 2
21082 21081 21083 21084 1 180.0000771 15.1670000 2
21082 21081 21083 21085 1 180.0000771 15.1670000 2
21079 21083 21081 21082 4 180.0000771 4.6024000 2
21076 21083 21085 21086 4 180.0000771 4.6024000 2
21081 21083 21085 21086 1 180.0000771 15.1670000 2
21084 21083 21085 21086 1 180.0000771 15.1670000 2
21076 21085 21083 21081 1 180.0000771 15.1670000 2
21076 21085 21083 21084 1 180.0000771 15.1670000 2
21081 21085 21083 21084 4 180.0000771 4.6024000 2
21087 21088 21089 21090 1 180.0000771 15.1670000 2
21087 21088 21089 21091 1 180.0000771 15.1670000 2
21090 21088 21089 21091 4 180.0000771 4.6024000 2
21087 21088 21097 21089 4 180.0000771 4.6024000 2
21087 21088 21097 21095 1 180.0000771 15.1670000 2
21087 21088 21097 21098 1 180.0000771 15.1670000 2
21089 21088 21097 21095 1 180.0000771 15.1670000 2
21089 21088 21097 21098 1 180.0000771 15.1670000 2
21090 21089 21088 21097 1 180.0000771 15.1670000 2
21091 21089 21088 21097 1 180.0000771 15.1670000 2
21088 21089 21091 21092 1 180.0000771 15.1670000 2
21088 21089 21091 21093 1 180.0000771 15.1670000 2
21090 21089 21091 21092 1 180.0000771 15.1670000 2
21090 21089 21091 21093 1 180.0000771 15.1670000 2
21089 21091 21093 21094 1 180.0000771 15.1670000 2
21089 21091 21093 21095 1 180.0000771 15.1670000 2
21092 21091 21093 21094 1 180.0000771 15.1670000 2
21092 21091 21093 21095 1 180.0000771 15.1670000 2
21089 21093 21091 21092 4 180.0000771 4.6024000 2
21091 21093 21095 21096 1 180.0000771 15.1670000 2
21091 21093 21095 21097 1 180.0000771 15.1670000 2
21094 21093 21095 21096 1 180.0000771 15.1670000 2
21094 21093 21095 21097 1 180.0000771 15.1670000 2
21091 21095 21093 21094 4 180.0000771 4.6024000 2
21088 21095 21097 21098 4 180.0000771 4.6024000 2
21093 21095 21097 21098 1 180.0000771 15.1670000 2
21096 21095 21097 21098 1 180.0000771 15.1670000 2
21088 21097 21095 21093 1 180.0000771 15.1670000 2
21088 21097 21095 21096 1 180.0000771 15.1670000 2
21093 21097 21095 21096 4 180.0000771 4.6024000 2
21099 21100 21101 21102 1 180.0000771 15.1670000 2
21099 21100 21101 21103 1 180.0000771 15.1670000 2
21102 21100 21101 21103 4 180.0000771 4.6024000 2
21099 21100 21109 21101 4 180.0000771 4.6024000 2
21099 21100 21109 21107 1 180.0000771 15.1670000 2
21099 21100 21109 21110 1 180.0000771 15.1670000 2
21101 21100 21109 21107 1 180.0000771 15.1670000 2
21101 21100 21109 21110 1 180.0000771 15.1670000 2
21102 21101 21100 21109 1 180.0000771 15.1670000 2
21103 21101 21100 21109 1 180.0000771 15.1670000 2
21100 21101 21103 21104 1 180.0000771 15.1670000 2
21100 21101 21103 21105 1 180.0000771 15.1670000 2
21102 21101 21103 21104 1 180.0000771 15.1670000 2
21102 21101 21103 21105 1 180.0000771 15.1670000 2
21101 21103 21105 21106 1 180.0000771 15.1670000 2
21101 21103 21105 21107 1 180.0000771 15.1670000 2
21104 21103 21105 21106 1 180.0000771 15.1670000 2
21104 21103 21105 21107 1 180.0000771 15.1670000 2
21101 21105 21103 21104 4 180.0000771 4.6024000 2
21103 21105 21107 21108 1 180.0000771 15.1670000 2
21103 21105 21107 21109 1 180.0000771 15.1670000 2
21106 21105 21107 21108 1 180.0000771 15.1670000 2
21106 21105 21107 21109 1 180.0000771 15.1670000 2
21103 21107 21105 21106 4 180.0000771 4.6024000 2
21100 21107 21109 21110 4 180.0000771 4.6024000 2
21105 21107 21109 21110 1 180.0000771 15.1670000 2
21108 21107 21109 21110 1 180.0000771 15.1670000 2
21100 21109 21107 21105 1 180.0000771 15.1670000 2
21100 21109 21107 21108 1 180.0000771 15.1670000 2
21105 21109 21107 21108 4 180.0000771 4.6024000 2
21111 21112 21113 21114 1 180.0000771 15.1670000 2
21111 21112 21113 21115 1 180.0000771 15.1670000 2
21114 21112 21113 21115 4 180.0000771 4.6024000 2
21111 21112 21121 21113 4 180.0000771 4.6024000 2
21111 21112 21121 21119 1 180.0000771 15.1670000 2
21111 21112 21121 21122 1 180.0000771 15.1670000 2
21113 21112 21121 21119 1 180.0000771 15.1670000 2
21113 21112 21121 21122 1 180.0000771 15.1670000 2
21114 21113 21112 21121 1 180.0000771 15.1670000 2
21115 21113 21112 21121 1 180.0000771 15.1670000 2
21112 21113 21115 21116 1 180.0000771 15.1670000 2
21112 21113 21115 21117 1 180.0000771 15.1670000 2
21114 21113 21115 21116 1 180.0000771 15.1670000 2
21114 21113 21115 21117 1 180.0000771 15.1670000 2
21113 21115 21117 21118 1 180.0000771 15.1670000 2
21113 21115 21117 21119 1 180.0000771 15.1670000 2
21116 21115 21117 21118 1 180.0000771 15.1670000 2
21116 21115 21117 21119 1 180.0000771 15.1670000 2
21113 21117 21115 21116 4 180.0000771 4.6024000 2
21115 21117 21119 21120 1 180.0000771 15.1670000 2
21115 21117 21119 21121 1 180.0000771 15.1670000 2
21118 21117 21119 21120 1 180.0000771 15.1670000 2
21118 21117 21119 21121 1 180.0000771 15.1670000 2
21115 21119 21117 21118 4 180.0000771 4.6024000 2
21112 21119 21121 21122 4 180.0000771 4.6024000 2
21117 21119 21121 21122 1 180.0000771 15.1670000 2
21120 21119 21121 21122 1 180.0000771 15.1670000 2
21112 21121 21119 21117 1 180.0000771 15.1670000 2
21112 21121 21119 21120 1 180.0000771 15.1670000 2
21117 21121 21119 21120 4 180.0000771 4.6024000 2
21123 21124 21125 21126 1 180.0000771 15.1670000 2
21123 21124 21125 21127 1 180.0000771 15.1670000 2
21126 21124 21125 21127 4 180.0000771 4.6024000 2
21123 21124 21133 21125 4 180.0000771 4.6024000 2
21123 21124 21133 21131 1 180.0000771 15.1670000 2
21123 21124 21133 21134 1 180.0000771 15.1670000 2
21125 21124 21133 21131 1 180.0000771 15.1670000 2
21125 21124 21133 21134 1 180.0000771 15.1670000 2
21126 21125 21124 21133 1 180.0000771 15.1670000 2
21127 21125 21124 21133 1 180.0000771 15.1670000 2
21124 21125 21127 21128 1 180.0000771 15.1670000 2
21124 21125 21127 21129 1 180.0000771 15.1670000 2
21126 21125 21127 21128 1 180.0000771 15.1670000 2
21126 21125 21127 21129 1 180.0000771 15.1670000 2
21125 21127 21129 21130 1 180.0000771 15.1670000 2
21125 21127 21129 21131 1 180.0000771 15.1670000 2
21128 21127 21129 21130 1 180.0000771 15.1670000 2
21128 21127 21129 21131 1 180.0000771 15.1670000 2
21125 21129 21127 21128 4 180.0000771 4.6024000 2
21127 21129 21131 21132 1 180.0000771 15.1670000 2
21127 21129 21131 21133 1 180.0000771 15.1670000 2
21130 21129 21131 21132 1 180.0000771 15.1670000 2
21130 21129 21131 21133 1 180.0000771 15.1670000 2
21127 21131 21129 21130 4 180.0000771 4.6024000 2
21124 21131 21133 21134 4 180.0000771 4.6024000 2
21129 21131 21133 21134 1 180.0000771 15.1670000 2
21132 21131 21133 21134 1 180.0000771 15.1670000 2
21124 21133 21131 21129 1 180.0000771 15.1670000 2
21124 21133 21131 21132 1 180.0000771 15.1670000 2
21129 21133 21131 21132 4 180.0000771 4.6024000 2
21135 21136 21137 21138 1 180.0000771 15.1670000 2
21135 21136 21137 21139 1 180.0000771 15.1670000 2
21138 21136 21137 21139 4 180.0000771 4.6024000 2
21135 21136 21145 21137 4 180.0000771 4.6024000 2
21135 21136 21145 21143 1 180.0000771 15.1670000 2
21135 21136 21145 21146 1 180.0000771 15.1670000 2
21137 21136 21145 21143 1 180.0000771 15.1670000 2
21137 21136 21145 21146 1 180.0000771 15.1670000 2
21138 21137 21136 21145 1 180.0000771 15.1670000 2
21139 21137 21136 21145 1 180.0000771 15.1670000 2
21136 21137 21139 21140 1 180.0000771 15.1670000 2
21136 21137 21139 21141 1 180.0000771 15.1670000 2
21138 21137 21139 21140 1 180.0000771 15.1670000 2
21138 21137 21139 21141 1 180.0000771 15.1670000 2
21137 21139 21141 21142 1 180.0000771 15.1670000 2
21137 21139 21141 21143 1 180.0000771 15.1670000 2
21140 21139 21141 21142 1 180.0000771 15.1670000 2
21140 21139 21141 21143 1 180.0000771 15.1670000 2
21137 21141 21139 21140 4 180.0000771 4.6024000 2
21139 21141 21143 21144 1 180.0000771 15.1670000 2
21139 21141 21143 21145 1 180.0000771 15.1670000 2
21142 21141 21143 21144 1 180.0000771 15.1670000 2
21142 21141 21143 21145 1 180.0000771 15.1670000 2
21139 21143 21141 21142 4 180.0000771 4.6024000 2
21136 21143 21145 21146 4 180.0000771 4.6024000 2
21141 21143 21145 21146 1 180.0000771 15.1670000 2
21144 21143 21145 21146 1 180.0000771 15.1670000 2
21136 21145 21143 21141 1 180.0000771 15.1670000 2
21136 21145 21143 21144 1 180.0000771 15.1670000 2
21141 21145 21143 21144 4 180.0000771 4.6024000 2
21147 21148 21149 21150 1 180.0000771 15.1670000 2
21147 21148 21149 21151 1 180.0000771 15.1670000 2
21150 21148 21149 21151 4 180.0000771 4.6024000 2
21147 21148 21157 21149 4 180.0000771 4.6024000 2
21147 21148 21157 21155 1 180.0000771 15.1670000 2
21147 21148 21157 21158 1 180.0000771 15.1670000 2
21149 21148 21157 21155 1 180.0000771 15.1670000 2
21149 21148 21157 21158 1 180.0000771 15.1670000 2
21150 21149 21148 21157 1 180.0000771 15.1670000 2
21151 21149 21148 21157 1 180.0000771 15.1670000 2
21148 21149 21151 21152 1 180.0000771 15.1670000 2
21148 21149 21151 21153 1 180.0000771 15.1670000 2
21150 21149 21151 21152 1 180.0000771 15.1670000 2
21150 21149 21151 21153 1 180.0000771 15.1670000 2
21149 21151 21153 21154 1 180.0000771 15.1670000 2
21149 21151 21153 21155 1 180.0000771 15.1670000 2
21152 21151 21153 21154 1 180.0000771 15.1670000 2
21152 21151 21153 21155 1 180.0000771 15.1670000 2
21149 21153 21151 21152 4 180.0000771 4.6024000 2
21151 21153 21155 21156 1 180.0000771 15.1670000 2
21151 21153 21155 21157 1 180.0000771 15.1670000 2
21154 21153 21155 21156 1 180.0000771 15.1670000 2
21154 21153 21155 21157 1 180.0000771 15.1670000 2
21151 21155 21153 21154 4 180.0000771 4.6024000 2
21148 21155 21157 21158 4 180.0000771 4.6024000 2
21153 21155 21157 21158 1 180.0000771 15.1670000 2
21156 21155 21157 21158 1 180.0000771 15.1670000 2
21148 21157 21155 21153 1 180.0000771 15.1670000 2
21148 21157 21155 21156 1 180.0000771 15.1670000 2
21153 21157 21155 21156 4 180.0000771 4.6024000 2
21159 21160 21161 21162 1 180.0000771 15.1670000 2
21159 21160 21161 21163 1 180.0000771 15.1670000 2
21162 21160 21161 21163 4 180.0000771 4.6024000 2
21159 21160 21169 21161 4 180.0000771 4.6024000 2
21159 21160 21169 21167 1 180.0000771 15.1670000 2
21159 21160 21169 21170 1 180.0000771 15.1670000 2
21161 21160 21169 21167 1 180.0000771 15.1670000 2
21161 21160 21169 21170 1 180.0000771 15.1670000 2
21162 21161 21160 21169 1 180.0000771 15.1670000 2
21163 21161 21160 21169 1 180.0000771 15.1670000 2
21160 21161 21163 21164 1 180.0000771 15.1670000 2
21160 21161 21163 21165 1 180.0000771 15.1670000 2
21162 21161 21163 21164 1 180.0000771 15.1670000 2
21162 21161 21163 21165 1 180.0000771 15.1670000 2
21161 21163 21165 21166 1 180.0000771 15.1670000 2
21161 21163 21165 21167 1 180.0000771 15.1670000 2
21164 21163 21165 21166 1 180.0000771 15.1670000 2
21164 21163 21165 21167 1 180.0000771 15.1670000 2
21161 21165 21163 21164 4 180.0000771 4.6024000 2
21163 21165 21167 21168 1 180.0000771 15.1670000 2
21163 21165 21167 21169 1 180.0000771 15.1670000 2
21166 21165 21167 21168 1 180.0000771 15.1670000 2
21166 21165 21167 21169 1 180.0000771 15.1670000 2
21163 21167 21165 21166 4 180.0000771 4.6024000 2
21160 21167 21169 21170 4 180.0000771 4.6024000 2
21165 21167 21169 21170 1 180.0000771 15.1670000 2
21168 21167 21169 21170 1 180.0000771 15.1670000 2
21160 21169 21167 21165 1 180.0000771 15.1670000 2
21160 21169 21167 21168 1 180.0000771 15.1670000 2
21165 21169 21167 21168 4 180.0000771 4.6024000 2
21171 21172 21173 21174 1 180.0000771 15.1670000 2
21171 21172 21173 21175 1 180.0000771 15.1670000 2
21174 21172 21173 21175 4 180.0000771 4.6024000 2
21171 21172 21181 21173 4 180.0000771 4.6024000 2
21171 21172 21181 21179 1 180.0000771 15.1670000 2
21171 21172 21181 21182 1 180.0000771 15.1670000 2
21173 21172 21181 21179 1 180.0000771 15.1670000 2
21173 21172 21181 21182 1 180.0000771 15.1670000 2
21174 21173 21172 21181 1 180.0000771 15.1670000 2
21175 21173 21172 21181 1 180.0000771 15.1670000 2
21172 21173 21175 21176 1 180.0000771 15.1670000 2
21172 21173 21175 21177 1 180.0000771 15.1670000 2
21174 21173 21175 21176 1 180.0000771 15.1670000 2
21174 21173 21175 21177 1 180.0000771 15.1670000 2
21173 21175 21177 21178 1 180.0000771 15.1670000 2
21173 21175 21177 21179 1 180.0000771 15.1670000 2
21176 21175 21177 21178 1 180.0000771 15.1670000 2
21176 21175 21177 21179 1 180.0000771 15.1670000 2
21173 21177 21175 21176 4 180.0000771 4.6024000 2
21175 21177 21179 21180 1 180.0000771 15.1670000 2
21175 21177 21179 21181 1 180.0000771 15.1670000 2
21178 21177 21179 21180 1 180.0000771 15.1670000 2
21178 21177 21179 21181 1 180.0000771 15.1670000 2
21175 21179 21177 21178 4 180.0000771 4.6024000 2
21172 21179 21181 21182 4 180.0000771 4.6024000 2
21177 21179 21181 21182 1 180.0000771 15.1670000 2
21180 21179 21181 21182 1 180.0000771 15.1670000 2
21172 21181 21179 21177 1 180.0000771 15.1670000 2
21172 21181 21179 21180 1 180.0000771 15.1670000 2
21177 21181 21179 21180 4 180.0000771 4.6024000 2
21183 21184 21185 21186 1 180.0000771 15.1670000 2
21183 21184 21185 21187 1 180.0000771 15.1670000 2
21186 21184 21185 21187 4 180.0000771 4.6024000 2
21183 21184 21193 21185 4 180.0000771 4.6024000 2
21183 21184 21193 21191 1 180.0000771 15.1670000 2
21183 21184 21193 21194 1 180.0000771 15.1670000 2
21185 21184 21193 21191 1 180.0000771 15.1670000 2
21185 21184 21193 21194 1 180.0000771 15.1670000 2
21186 21185 21184 21193 1 180.0000771 15.1670000 2
21187 21185 21184 21193 1 180.0000771 15.1670000 2
21184 21185 21187 21188 1 180.0000771 15.1670000 2
21184 21185 21187 21189 1 180.0000771 15.1670000 2
21186 21185 21187 21188 1 180.0000771 15.1670000 2
21186 21185 21187 21189 1 180.0000771 15.1670000 2
21185 21187 21189 21190 1 180.0000771 15.1670000 2
21185 21187 21189 21191 1 180.0000771 15.1670000 2
21188 21187 21189 21190 1 180.0000771 15.1670000 2
21188 21187 21189 21191 1 180.0000771 15.1670000 2
21185 21189 21187 21188 4 180.0000771 4.6024000 2
21187 21189 21191 21192 1 180.0000771 15.1670000 2
21187 21189 21191 21193 1 180.0000771 15.1670000 2
21190 21189 21191 21192 1 180.0000771 15.1670000 2
21190 21189 21191 21193 1 180.0000771 15.1670000 2
21187 21191 21189 21190 4 180.0000771 4.6024000 2
21184 21191 21193 21194 4 180.0000771 4.6024000 2
21189 21191 21193 21194 1 180.0000771 15.1670000 2
21192 21191 21193 21194 1 180.0000771 15.1670000 2
21184 21193 21191 21189 1 180.0000771 15.1670000 2
21184 21193 21191 21192 1 180.0000771 15.1670000 2
21189 21193 21191 21192 4 180.0000771 4.6024000 2
21195 21196 21197 21198 1 180.0000771 15.1670000 2
21195 21196 21197 21199 1 180.0000771 15.1670000 2
21198 21196 21197 21199 4 180.0000771 4.6024000 2
21195 21196 21205 21197 4 180.0000771 4.6024000 2
21195 21196 21205 21203 1 180.0000771 15.1670000 2
21195 21196 21205 21206 1 180.0000771 15.1670000 2
21197 21196 21205 21203 1 180.0000771 15.1670000 2
21197 21196 21205 21206 1 180.0000771 15.1670000 2
21198 21197 21196 21205 1 180.0000771 15.1670000 2
21199 21197 21196 21205 1 180.0000771 15.1670000 2
21196 21197 21199 21200 1 180.0000771 15.1670000 2
21196 21197 21199 21201 1 180.0000771 15.1670000 2
21198 21197 21199 21200 1 180.0000771 15.1670000 2
21198 21197 21199 21201 1 180.0000771 15.1670000 2
21197 21199 21201 21202 1 180.0000771 15.1670000 2
21197 21199 21201 21203 1 180.0000771 15.1670000 2
21200 21199 21201 21202 1 180.0000771 15.1670000 2
21200 21199 21201 21203 1 180.0000771 15.1670000 2
21197 21201 21199 21200 4 180.0000771 4.6024000 2
21199 21201 21203 21204 1 180.0000771 15.1670000 2
21199 21201 21203 21205 1 180.0000771 15.1670000 2
21202 21201 21203 21204 1 180.0000771 15.1670000 2
21202 21201 21203 21205 1 180.0000771 15.1670000 2
21199 21203 21201 21202 4 180.0000771 4.6024000 2
21196 21203 21205 21206 4 180.0000771 4.6024000 2
21201 21203 21205 21206 1 180.0000771 15.1670000 2
21204 21203 21205 21206 1 180.0000771 15.1670000 2
21196 21205 21203 21201 1 180.0000771 15.1670000 2
21196 21205 21203 21204 1 180.0000771 15.1670000 2
21201 21205 21203 21204 4 180.0000771 4.6024000 2
21207 21208 21209 21210 1 180.0000771 15.1670000 2
21207 21208 21209 21211 1 180.0000771 15.1670000 2
21210 21208 21209 21211 4 180.0000771 4.6024000 2
21207 21208 21217 21209 4 180.0000771 4.6024000 2
21207 21208 21217 21215 1 180.0000771 15.1670000 2
21207 21208 21217 21218 1 180.0000771 15.1670000 2
21209 21208 21217 21215 1 180.0000771 15.1670000 2
21209 21208 21217 21218 1 180.0000771 15.1670000 2
21210 21209 21208 21217 1 180.0000771 15.1670000 2
21211 21209 21208 21217 1 180.0000771 15.1670000 2
21208 21209 21211 21212 1 180.0000771 15.1670000 2
21208 21209 21211 21213 1 180.0000771 15.1670000 2
21210 21209 21211 21212 1 180.0000771 15.1670000 2
21210 21209 21211 21213 1 180.0000771 15.1670000 2
21209 21211 21213 21214 1 180.0000771 15.1670000 2
21209 21211 21213 21215 1 180.0000771 15.1670000 2
21212 21211 21213 21214 1 180.0000771 15.1670000 2
21212 21211 21213 21215 1 180.0000771 15.1670000 2
21209 21213 21211 21212 4 180.0000771 4.6024000 2
21211 21213 21215 21216 1 180.0000771 15.1670000 2
21211 21213 21215 21217 1 180.0000771 15.1670000 2
21214 21213 21215 21216 1 180.0000771 15.1670000 2
21214 21213 21215 21217 1 180.0000771 15.1670000 2
21211 21215 21213 21214 4 180.0000771 4.6024000 2
21208 21215 21217 21218 4 180.0000771 4.6024000 2
21213 21215 21217 21218 1 180.0000771 15.1670000 2
21216 21215 21217 21218 1 180.0000771 15.1670000 2
21208 21217 21215 21213 1 180.0000771 15.1670000 2
21208 21217 21215 21216 1 180.0000771 15.1670000 2
21213 21217 21215 21216 4 180.0000771 4.6024000 2
21219 21220 21221 21222 1 180.0000771 15.1670000 2
21219 21220 21221 21223 1 180.0000771 15.1670000 2
21222 21220 21221 21223 4 180.0000771 4.6024000 2
21219 21220 21229 21221 4 180.0000771 4.6024000 2
21219 21220 21229 21227 1 180.0000771 15.1670000 2
21219 21220 21229 21230 1 180.0000771 15.1670000 2
21221 21220 21229 21227 1 180.0000771 15.1670000 2
21221 21220 21229 21230 1 180.0000771 15.1670000 2
21222 21221 21220 21229 1 180.0000771 15.1670000 2
21223 21221 21220 21229 1 180.0000771 15.1670000 2
21220 21221 21223 21224 1 180.0000771 15.1670000 2
21220 21221 21223 21225 1 180.0000771 15.1670000 2
21222 21221 21223 21224 1 180.0000771 15.1670000 2
21222 21221 21223 21225 1 180.0000771 15.1670000 2
21221 21223 21225 21226 1 180.0000771 15.1670000 2
21221 21223 21225 21227 1 180.0000771 15.1670000 2
21224 21223 21225 21226 1 180.0000771 15.1670000 2
21224 21223 21225 21227 1 180.0000771 15.1670000 2
21221 21225 21223 21224 4 180.0000771 4.6024000 2
21223 21225 21227 21228 1 180.0000771 15.1670000 2
21223 21225 21227 21229 1 180.0000771 15.1670000 2
21226 21225 21227 21228 1 180.0000771 15.1670000 2
21226 21225 21227 21229 1 180.0000771 15.1670000 2
21223 21227 21225 21226 4 180.0000771 4.6024000 2
21220 21227 21229 21230 4 180.0000771 4.6024000 2
21225 21227 21229 21230 1 180.0000771 15.1670000 2
21228 21227 21229 21230 1 180.0000771 15.1670000 2
21220 21229 21227 21225 1 180.0000771 15.1670000 2
21220 21229 21227 21228 1 180.0000771 15.1670000 2
21225 21229 21227 21228 4 180.0000771 4.6024000 2
21231 21232 21233 21234 1 180.0000771 15.1670000 2
21231 21232 21233 21235 1 180.0000771 15.1670000 2
21234 21232 21233 21235 4 180.0000771 4.6024000 2
21231 21232 21241 21233 4 180.0000771 4.6024000 2
21231 21232 21241 21239 1 180.0000771 15.1670000 2
21231 21232 21241 21242 1 180.0000771 15.1670000 2
21233 21232 21241 21239 1 180.0000771 15.1670000 2
21233 21232 21241 21242 1 180.0000771 15.1670000 2
21234 21233 21232 21241 1 180.0000771 15.1670000 2
21235 21233 21232 21241 1 180.0000771 15.1670000 2
21232 21233 21235 21236 1 180.0000771 15.1670000 2
21232 21233 21235 21237 1 180.0000771 15.1670000 2
21234 21233 21235 21236 1 180.0000771 15.1670000 2
21234 21233 21235 21237 1 180.0000771 15.1670000 2
21233 21235 21237 21238 1 180.0000771 15.1670000 2
21233 21235 21237 21239 1 180.0000771 15.1670000 2
21236 21235 21237 21238 1 180.0000771 15.1670000 2
21236 21235 21237 21239 1 180.0000771 15.1670000 2
21233 21237 21235 21236 4 180.0000771 4.6024000 2
21235 21237 21239 21240 1 180.0000771 15.1670000 2
21235 21237 21239 21241 1 180.0000771 15.1670000 2
21238 21237 21239 21240 1 180.0000771 15.1670000 2
21238 21237 21239 21241 1 180.0000771 15.1670000 2
21235 21239 21237 21238 4 180.0000771 4.6024000 2
21232 21239 21241 21242 4 180.0000771 4.6024000 2
21237 21239 21241 21242 1 180.0000771 15.1670000 2
21240 21239 21241 21242 1 180.0000771 15.1670000 2
21232 21241 21239 21237 1 180.0000771 15.1670000 2
21232 21241 21239 21240 1 180.0000771 15.1670000 2
21237 21241 21239 21240 4 180.0000771 4.6024000 2
21243 21244 21245 21246 1 180.0000771 15.1670000 2
21243 21244 21245 21247 1 180.0000771 15.1670000 2
21246 21244 21245 21247 4 180.0000771 4.6024000 2
21243 21244 21253 21245 4 180.0000771 4.6024000 2
21243 21244 21253 21251 1 180.0000771 15.1670000 2
21243 21244 21253 21254 1 180.0000771 15.1670000 2
21245 21244 21253 21251 1 180.0000771 15.1670000 2
21245 21244 21253 21254 1 180.0000771 15.1670000 2
21246 21245 21244 21253 1 180.0000771 15.1670000 2
21247 21245 21244 21253 1 180.0000771 15.1670000 2
21244 21245 21247 21248 1 180.0000771 15.1670000 2
21244 21245 21247 21249 1 180.0000771 15.1670000 2
21246 21245 21247 21248 1 180.0000771 15.1670000 2
21246 21245 21247 21249 1 180.0000771 15.1670000 2
21245 21247 21249 21250 1 180.0000771 15.1670000 2
21245 21247 21249 21251 1 180.0000771 15.1670000 2
21248 21247 21249 21250 1 180.0000771 15.1670000 2
21248 21247 21249 21251 1 180.0000771 15.1670000 2
21245 21249 21247 21248 4 180.0000771 4.6024000 2
21247 21249 21251 21252 1 180.0000771 15.1670000 2
21247 21249 21251 21253 1 180.0000771 15.1670000 2
21250 21249 21251 21252 1 180.0000771 15.1670000 2
21250 21249 21251 21253 1 180.0000771 15.1670000 2
21247 21251 21249 21250 4 180.0000771 4.6024000 2
21244 21251 21253 21254 4 180.0000771 4.6024000 2
21249 21251 21253 21254 1 180.0000771 15.1670000 2
21252 21251 21253 21254 1 180.0000771 15.1670000 2
21244 21253 21251 21249 1 180.0000771 15.1670000 2
21244 21253 21251 21252 1 180.0000771 15.1670000 2
21249 21253 21251 21252 4 180.0000771 4.6024000 2
21255 21256 21257 21258 1 180.0000771 15.1670000 2
21255 21256 21257 21259 1 180.0000771 15.1670000 2
21258 21256 21257 21259 4 180.0000771 4.6024000 2
21255 21256 21265 21257 4 180.0000771 4.6024000 2
21255 21256 21265 21263 1 180.0000771 15.1670000 2
21255 21256 21265 21266 1 180.0000771 15.1670000 2
21257 21256 21265 21263 1 180.0000771 15.1670000 2
21257 21256 21265 21266 1 180.0000771 15.1670000 2
21258 21257 21256 21265 1 180.0000771 15.1670000 2
21259 21257 21256 21265 1 180.0000771 15.1670000 2
21256 21257 21259 21260 1 180.0000771 15.1670000 2
21256 21257 21259 21261 1 180.0000771 15.1670000 2
21258 21257 21259 21260 1 180.0000771 15.1670000 2
21258 21257 21259 21261 1 180.0000771 15.1670000 2
21257 21259 21261 21262 1 180.0000771 15.1670000 2
21257 21259 21261 21263 1 180.0000771 15.1670000 2
21260 21259 21261 21262 1 180.0000771 15.1670000 2
21260 21259 21261 21263 1 180.0000771 15.1670000 2
21257 21261 21259 21260 4 180.0000771 4.6024000 2
21259 21261 21263 21264 1 180.0000771 15.1670000 2
21259 21261 21263 21265 1 180.0000771 15.1670000 2
21262 21261 21263 21264 1 180.0000771 15.1670000 2
21262 21261 21263 21265 1 180.0000771 15.1670000 2
21259 21263 21261 21262 4 180.0000771 4.6024000 2
21256 21263 21265 21266 4 180.0000771 4.6024000 2
21261 21263 21265 21266 1 180.0000771 15.1670000 2
21264 21263 21265 21266 1 180.0000771 15.1670000 2
21256 21265 21263 21261 1 180.0000771 15.1670000 2
21256 21265 21263 21264 1 180.0000771 15.1670000 2
21261 21265 21263 21264 4 180.0000771 4.6024000 2
21267 21268 21269 21270 1 180.0000771 15.1670000 2
21267 21268 21269 21271 1 180.0000771 15.1670000 2
21270 21268 21269 21271 4 180.0000771 4.6024000 2
21267 21268 21277 21269 4 180.0000771 4.6024000 2
21267 21268 21277 21275 1 180.0000771 15.1670000 2
21267 21268 21277 21278 1 180.0000771 15.1670000 2
21269 21268 21277 21275 1 180.0000771 15.1670000 2
21269 21268 21277 21278 1 180.0000771 15.1670000 2
21270 21269 21268 21277 1 180.0000771 15.1670000 2
21271 21269 21268 21277 1 180.0000771 15.1670000 2
21268 21269 21271 21272 1 180.0000771 15.1670000 2
21268 21269 21271 21273 1 180.0000771 15.1670000 2
21270 21269 21271 21272 1 180.0000771 15.1670000 2
21270 21269 21271 21273 1 180.0000771 15.1670000 2
21269 21271 21273 21274 1 180.0000771 15.1670000 2
21269 21271 21273 21275 1 180.0000771 15.1670000 2
21272 21271 21273 21274 1 180.0000771 15.1670000 2
21272 21271 21273 21275 1 180.0000771 15.1670000 2
21269 21273 21271 21272 4 180.0000771 4.6024000 2
21271 21273 21275 21276 1 180.0000771 15.1670000 2
21271 21273 21275 21277 1 180.0000771 15.1670000 2
21274 21273 21275 21276 1 180.0000771 15.1670000 2
21274 21273 21275 21277 1 180.0000771 15.1670000 2
21271 21275 21273 21274 4 180.0000771 4.6024000 2
21268 21275 21277 21278 4 180.0000771 4.6024000 2
21273 21275 21277 21278 1 180.0000771 15.1670000 2
21276 21275 21277 21278 1 180.0000771 15.1670000 2
21268 21277 21275 21273 1 180.0000771 15.1670000 2
21268 21277 21275 21276 1 180.0000771 15.1670000 2
21273 21277 21275 21276 4 180.0000771 4.6024000 2
21279 21280 21281 21282 1 180.0000771 15.1670000 2
21279 21280 21281 21283 1 180.0000771 15.1670000 2
21282 21280 21281 21283 4 180.0000771 4.6024000 2
21279 21280 21289 21281 4 180.0000771 4.6024000 2
21279 21280 21289 21287 1 180.0000771 15.1670000 2
21279 21280 21289 21290 1 180.0000771 15.1670000 2
21281 21280 21289 21287 1 180.0000771 15.1670000 2
21281 21280 21289 21290 1 180.0000771 15.1670000 2
21282 21281 21280 21289 1 180.0000771 15.1670000 2
21283 21281 21280 21289 1 180.0000771 15.1670000 2
21280 21281 21283 21284 1 180.0000771 15.1670000 2
21280 21281 21283 21285 1 180.0000771 15.1670000 2
21282 21281 21283 21284 1 180.0000771 15.1670000 2
21282 21281 21283 21285 1 180.0000771 15.1670000 2
21281 21283 21285 21286 1 180.0000771 15.1670000 2
21281 21283 21285 21287 1 180.0000771 15.1670000 2
21284 21283 21285 21286 1 180.0000771 15.1670000 2
21284 21283 21285 21287 1 180.0000771 15.1670000 2
21281 21285 21283 21284 4 180.0000771 4.6024000 2
21283 21285 21287 21288 1 180.0000771 15.1670000 2
21283 21285 21287 21289 1 180.0000771 15.1670000 2
21286 21285 21287 21288 1 180.0000771 15.1670000 2
21286 21285 21287 21289 1 180.0000771 15.1670000 2
21283 21287 21285 21286 4 180.0000771 4.6024000 2
21280 21287 21289 21290 4 180.0000771 4.6024000 2
21285 21287 21289 21290 1 180.0000771 15.1670000 2
21288 21287 21289 21290 1 180.0000771 15.1670000 2
21280 21289 21287 21285 1 180.0000771 15.1670000 2
21280 21289 21287 21288 1 180.0000771 15.1670000 2
21285 21289 21287 21288 4 180.0000771 4.6024000 2
21291 21292 21293 21294 1 180.0000771 15.1670000 2
21291 21292 21293 21295 1 180.0000771 15.1670000 2
21294 21292 21293 21295 4 180.0000771 4.6024000 2
21291 21292 21301 21293 4 180.0000771 4.6024000 2
21291 21292 21301 21299 1 180.0000771 15.1670000 2
21291 21292 21301 21302 1 180.0000771 15.1670000 2
21293 21292 21301 21299 1 180.0000771 15.1670000 2
21293 21292 21301 21302 1 180.0000771 15.1670000 2
21294 21293 21292 21301 1 180.0000771 15.1670000 2
21295 21293 21292 21301 1 180.0000771 15.1670000 2
21292 21293 21295 21296 1 180.0000771 15.1670000 2
21292 21293 21295 21297 1 180.0000771 15.1670000 2
21294 21293 21295 21296 1 180.0000771 15.1670000 2
21294 21293 21295 21297 1 180.0000771 15.1670000 2
21293 21295 21297 21298 1 180.0000771 15.1670000 2
21293 21295 21297 21299 1 180.0000771 15.1670000 2
21296 21295 21297 21298 1 180.0000771 15.1670000 2
21296 21295 21297 21299 1 180.0000771 15.1670000 2
21293 21297 21295 21296 4 180.0000771 4.6024000 2
21295 21297 21299 21300 1 180.0000771 15.1670000 2
21295 21297 21299 21301 1 180.0000771 15.1670000 2
21298 21297 21299 21300 1 180.0000771 15.1670000 2
21298 21297 21299 21301 1 180.0000771 15.1670000 2
21295 21299 21297 21298 4 180.0000771 4.6024000 2
21292 21299 21301 21302 4 180.0000771 4.6024000 2
21297 21299 21301 21302 1 180.0000771 15.1670000 2
21300 21299 21301 21302 1 180.0000771 15.1670000 2
21292 21301 21299 21297 1 180.0000771 15.1670000 2
21292 21301 21299 21300 1 180.0000771 15.1670000 2
21297 21301 21299 21300 4 180.0000771 4.6024000 2
21303 21304 21305 21306 1 180.0000771 15.1670000 2
21303 21304 21305 21307 1 180.0000771 15.1670000 2
21306 21304 21305 21307 4 180.0000771 4.6024000 2
21303 21304 21313 21305 4 180.0000771 4.6024000 2
21303 21304 21313 21311 1 180.0000771 15.1670000 2
21303 21304 21313 21314 1 180.0000771 15.1670000 2
21305 21304 21313 21311 1 180.0000771 15.1670000 2
21305 21304 21313 21314 1 180.0000771 15.1670000 2
21306 21305 21304 21313 1 180.0000771 15.1670000 2
21307 21305 21304 21313 1 180.0000771 15.1670000 2
21304 21305 21307 21308 1 180.0000771 15.1670000 2
21304 21305 21307 21309 1 180.0000771 15.1670000 2
21306 21305 21307 21308 1 180.0000771 15.1670000 2
21306 21305 21307 21309 1 180.0000771 15.1670000 2
21305 21307 21309 21310 1 180.0000771 15.1670000 2
21305 21307 21309 21311 1 180.0000771 15.1670000 2
21308 21307 21309 21310 1 180.0000771 15.1670000 2
21308 21307 21309 21311 1 180.0000771 15.1670000 2
21305 21309 21307 21308 4 180.0000771 4.6024000 2
21307 21309 21311 21312 1 180.0000771 15.1670000 2
21307 21309 21311 21313 1 180.0000771 15.1670000 2
21310 21309 21311 21312 1 180.0000771 15.1670000 2
21310 21309 21311 21313 1 180.0000771 15.1670000 2
21307 21311 21309 21310 4 180.0000771 4.6024000 2
21304 21311 21313 21314 4 180.0000771 4.6024000 2
21309 21311 21313 21314 1 180.0000771 15.1670000 2
21312 21311 21313 21314 1 180.0000771 15.1670000 2
21304 21313 21311 21309 1 180.0000771 15.1670000 2
21304 21313 21311 21312 1 180.0000771 15.1670000 2
21309 21313 21311 21312 4 180.0000771 4.6024000 2
21315 21316 21317 21318 1 180.0000771 15.1670000 2
21315 21316 21317 21319 1 180.0000771 15.1670000 2
21318 21316 21317 21319 4 180.0000771 4.6024000 2
21315 21316 21325 21317 4 180.0000771 4.6024000 2
21315 21316 21325 21323 1 180.0000771 15.1670000 2
21315 21316 21325 21326 1 180.0000771 15.1670000 2
21317 21316 21325 21323 1 180.0000771 15.1670000 2
21317 21316 21325 21326 1 180.0000771 15.1670000 2
21318 21317 21316 21325 1 180.0000771 15.1670000 2
21319 21317 21316 21325 1 180.0000771 15.1670000 2
21316 21317 21319 21320 1 180.0000771 15.1670000 2
21316 21317 21319 21321 1 180.0000771 15.1670000 2
21318 21317 21319 21320 1 180.0000771 15.1670000 2
21318 21317 21319 21321 1 180.0000771 15.1670000 2
21317 21319 21321 21322 1 180.0000771 15.1670000 2
21317 21319 21321 21323 1 180.0000771 15.1670000 2
21320 21319 21321 21322 1 180.0000771 15.1670000 2
21320 21319 21321 21323 1 180.0000771 15.1670000 2
21317 21321 21319 21320 4 180.0000771 4.6024000 2
21319 21321 21323 21324 1 180.0000771 15.1670000 2
21319 21321 21323 21325 1 180.0000771 15.1670000 2
21322 21321 21323 21324 1 180.0000771 15.1670000 2
21322 21321 21323 21325 1 180.0000771 15.1670000 2
21319 21323 21321 21322 4 180.0000771 4.6024000 2
21316 21323 21325 21326 4 180.0000771 4.6024000 2
21321 21323 21325 21326 1 180.0000771 15.1670000 2
21324 21323 21325 21326 1 180.0000771 15.1670000 2
21316 21325 21323 21321 1 180.0000771 15.1670000 2
21316 21325 21323 21324 1 180.0000771 15.1670000 2
21321 21325 21323 21324 4 180.0000771 4.6024000 2
21327 21328 21329 21330 1 180.0000771 15.1670000 2
21327 21328 21329 21331 1 180.0000771 15.1670000 2
21330 21328 21329 21331 4 180.0000771 4.6024000 2
21327 21328 21337 21329 4 180.0000771 4.6024000 2
21327 21328 21337 21335 1 180.0000771 15.1670000 2
21327 21328 21337 21338 1 180.0000771 15.1670000 2
21329 21328 21337 21335 1 180.0000771 15.1670000 2
21329 21328 21337 21338 1 180.0000771 15.1670000 2
21330 21329 21328 21337 1 180.0000771 15.1670000 2
21331 21329 21328 21337 1 180.0000771 15.1670000 2
21328 21329 21331 21332 1 180.0000771 15.1670000 2
21328 21329 21331 21333 1 180.0000771 15.1670000 2
21330 21329 21331 21332 1 180.0000771 15.1670000 2
21330 21329 21331 21333 1 180.0000771 15.1670000 2
21329 21331 21333 21334 1 180.0000771 15.1670000 2
21329 21331 21333 21335 1 180.0000771 15.1670000 2
21332 21331 21333 21334 1 180.0000771 15.1670000 2
21332 21331 21333 21335 1 180.0000771 15.1670000 2
21329 21333 21331 21332 4 180.0000771 4.6024000 2
21331 21333 21335 21336 1 180.0000771 15.1670000 2
21331 21333 21335 21337 1 180.0000771 15.1670000 2
21334 21333 21335 21336 1 180.0000771 15.1670000 2
21334 21333 21335 21337 1 180.0000771 15.1670000 2
21331 21335 21333 21334 4 180.0000771 4.6024000 2
21328 21335 21337 21338 4 180.0000771 4.6024000 2
21333 21335 21337 21338 1 180.0000771 15.1670000 2
21336 21335 21337 21338 1 180.0000771 15.1670000 2
21328 21337 21335 21333 1 180.0000771 15.1670000 2
21328 21337 21335 21336 1 180.0000771 15.1670000 2
21333 21337 21335 21336 4 180.0000771 4.6024000 2
21339 21340 21341 21342 1 180.0000771 15.1670000 2
21339 21340 21341 21343 1 180.0000771 15.1670000 2
21342 21340 21341 21343 4 180.0000771 4.6024000 2
21339 21340 21349 21341 4 180.0000771 4.6024000 2
21339 21340 21349 21347 1 180.0000771 15.1670000 2
21339 21340 21349 21350 1 180.0000771 15.1670000 2
21341 21340 21349 21347 1 180.0000771 15.1670000 2
21341 21340 21349 21350 1 180.0000771 15.1670000 2
21342 21341 21340 21349 1 180.0000771 15.1670000 2
21343 21341 21340 21349 1 180.0000771 15.1670000 2
21340 21341 21343 21344 1 180.0000771 15.1670000 2
21340 21341 21343 21345 1 180.0000771 15.1670000 2
21342 21341 21343 21344 1 180.0000771 15.1670000 2
21342 21341 21343 21345 1 180.0000771 15.1670000 2
21341 21343 21345 21346 1 180.0000771 15.1670000 2
21341 21343 21345 21347 1 180.0000771 15.1670000 2
21344 21343 21345 21346 1 180.0000771 15.1670000 2
21344 21343 21345 21347 1 180.0000771 15.1670000 2
21341 21345 21343 21344 4 180.0000771 4.6024000 2
21343 21345 21347 21348 1 180.0000771 15.1670000 2
21343 21345 21347 21349 1 180.0000771 15.1670000 2
21346 21345 21347 21348 1 180.0000771 15.1670000 2
21346 21345 21347 21349 1 180.0000771 15.1670000 2
21343 21347 21345 21346 4 180.0000771 4.6024000 2
21340 21347 21349 21350 4 180.0000771 4.6024000 2
21345 21347 21349 21350 1 180.0000771 15.1670000 2
21348 21347 21349 21350 1 180.0000771 15.1670000 2
21340 21349 21347 21345 1 180.0000771 15.1670000 2
21340 21349 21347 21348 1 180.0000771 15.1670000 2
21345 21349 21347 21348 4 180.0000771 4.6024000 2
21351 21352 21353 21354 1 180.0000771 15.1670000 2
21351 21352 21353 21355 1 180.0000771 15.1670000 2
21354 21352 21353 21355 4 180.0000771 4.6024000 2
21351 21352 21361 21353 4 180.0000771 4.6024000 2
21351 21352 21361 21359 1 180.0000771 15.1670000 2
21351 21352 21361 21362 1 180.0000771 15.1670000 2
21353 21352 21361 21359 1 180.0000771 15.1670000 2
21353 21352 21361 21362 1 180.0000771 15.1670000 2
21354 21353 21352 21361 1 180.0000771 15.1670000 2
21355 21353 21352 21361 1 180.0000771 15.1670000 2
21352 21353 21355 21356 1 180.0000771 15.1670000 2
21352 21353 21355 21357 1 180.0000771 15.1670000 2
21354 21353 21355 21356 1 180.0000771 15.1670000 2
21354 21353 21355 21357 1 180.0000771 15.1670000 2
21353 21355 21357 21358 1 180.0000771 15.1670000 2
21353 21355 21357 21359 1 180.0000771 15.1670000 2
21356 21355 21357 21358 1 180.0000771 15.1670000 2
21356 21355 21357 21359 1 180.0000771 15.1670000 2
21353 21357 21355 21356 4 180.0000771 4.6024000 2
21355 21357 21359 21360 1 180.0000771 15.1670000 2
21355 21357 21359 21361 1 180.0000771 15.1670000 2
21358 21357 21359 21360 1 180.0000771 15.1670000 2
21358 21357 21359 21361 1 180.0000771 15.1670000 2
21355 21359 21357 21358 4 180.0000771 4.6024000 2
21352 21359 21361 21362 4 180.0000771 4.6024000 2
21357 21359 21361 21362 1 180.0000771 15.1670000 2
21360 21359 21361 21362 1 180.0000771 15.1670000 2
21352 21361 21359 21357 1 180.0000771 15.1670000 2
21352 21361 21359 21360 1 180.0000771 15.1670000 2
21357 21361 21359 21360 4 180.0000771 4.6024000 2
21363 21364 21365 21366 1 180.0000771 15.1670000 2
21363 21364 21365 21367 1 180.0000771 15.1670000 2
21366 21364 21365 21367 4 180.0000771 4.6024000 2
21363 21364 21373 21365 4 180.0000771 4.6024000 2
21363 21364 21373 21371 1 180.0000771 15.1670000 2
21363 21364 21373 21374 1 180.0000771 15.1670000 2
21365 21364 21373 21371 1 180.0000771 15.1670000 2
21365 21364 21373 21374 1 180.0000771 15.1670000 2
21366 21365 21364 21373 1 180.0000771 15.1670000 2
21367 21365 21364 21373 1 180.0000771 15.1670000 2
21364 21365 21367 21368 1 180.0000771 15.1670000 2
21364 21365 21367 21369 1 180.0000771 15.1670000 2
21366 21365 21367 21368 1 180.0000771 15.1670000 2
21366 21365 21367 21369 1 180.0000771 15.1670000 2
21365 21367 21369 21370 1 180.0000771 15.1670000 2
21365 21367 21369 21371 1 180.0000771 15.1670000 2
21368 21367 21369 21370 1 180.0000771 15.1670000 2
21368 21367 21369 21371 1 180.0000771 15.1670000 2
21365 21369 21367 21368 4 180.0000771 4.6024000 2
21367 21369 21371 21372 1 180.0000771 15.1670000 2
21367 21369 21371 21373 1 180.0000771 15.1670000 2
21370 21369 21371 21372 1 180.0000771 15.1670000 2
21370 21369 21371 21373 1 180.0000771 15.1670000 2
21367 21371 21369 21370 4 180.0000771 4.6024000 2
21364 21371 21373 21374 4 180.0000771 4.6024000 2
21369 21371 21373 21374 1 180.0000771 15.1670000 2
21372 21371 21373 21374 1 180.0000771 15.1670000 2
21364 21373 21371 21369 1 180.0000771 15.1670000 2
21364 21373 21371 21372 1 180.0000771 15.1670000 2
21369 21373 21371 21372 4 180.0000771 4.6024000 2
21375 21376 21377 21378 1 180.0000771 15.1670000 2
21375 21376 21377 21379 1 180.0000771 15.1670000 2
21378 21376 21377 21379 4 180.0000771 4.6024000 2
21375 21376 21385 21377 4 180.0000771 4.6024000 2
21375 21376 21385 21383 1 180.0000771 15.1670000 2
21375 21376 21385 21386 1 180.0000771 15.1670000 2
21377 21376 21385 21383 1 180.0000771 15.1670000 2
21377 21376 21385 21386 1 180.0000771 15.1670000 2
21378 21377 21376 21385 1 180.0000771 15.1670000 2
21379 21377 21376 21385 1 180.0000771 15.1670000 2
21376 21377 21379 21380 1 180.0000771 15.1670000 2
21376 21377 21379 21381 1 180.0000771 15.1670000 2
21378 21377 21379 21380 1 180.0000771 15.1670000 2
21378 21377 21379 21381 1 180.0000771 15.1670000 2
21377 21379 21381 21382 1 180.0000771 15.1670000 2
21377 21379 21381 21383 1 180.0000771 15.1670000 2
21380 21379 21381 21382 1 180.0000771 15.1670000 2
21380 21379 21381 21383 1 180.0000771 15.1670000 2
21377 21381 21379 21380 4 180.0000771 4.6024000 2
21379 21381 21383 21384 1 180.0000771 15.1670000 2
21379 21381 21383 21385 1 180.0000771 15.1670000 2
21382 21381 21383 21384 1 180.0000771 15.1670000 2
21382 21381 21383 21385 1 180.0000771 15.1670000 2
21379 21383 21381 21382 4 180.0000771 4.6024000 2
21376 21383 21385 21386 4 180.0000771 4.6024000 2
21381 21383 21385 21386 1 180.0000771 15.1670000 2
21384 21383 21385 21386 1 180.0000771 15.1670000 2
21376 21385 21383 21381 1 180.0000771 15.1670000 2
21376 21385 21383 21384 1 180.0000771 15.1670000 2
21381 21385 21383 21384 4 180.0000771 4.6024000 2
21387 21388 21389 21390 1 180.0000771 15.1670000 2
21387 21388 21389 21391 1 180.0000771 15.1670000 2
21390 21388 21389 21391 4 180.0000771 4.6024000 2
21387 21388 21397 21389 4 180.0000771 4.6024000 2
21387 21388 21397 21395 1 180.0000771 15.1670000 2
21387 21388 21397 21398 1 180.0000771 15.1670000 2
21389 21388 21397 21395 1 180.0000771 15.1670000 2
21389 21388 21397 21398 1 180.0000771 15.1670000 2
21390 21389 21388 21397 1 180.0000771 15.1670000 2
21391 21389 21388 21397 1 180.0000771 15.1670000 2
21388 21389 21391 21392 1 180.0000771 15.1670000 2
21388 21389 21391 21393 1 180.0000771 15.1670000 2
21390 21389 21391 21392 1 180.0000771 15.1670000 2
21390 21389 21391 21393 1 180.0000771 15.1670000 2
21389 21391 21393 21394 1 180.0000771 15.1670000 2
21389 21391 21393 21395 1 180.0000771 15.1670000 2
21392 21391 21393 21394 1 180.0000771 15.1670000 2
21392 21391 21393 21395 1 180.0000771 15.1670000 2
21389 21393 21391 21392 4 180.0000771 4.6024000 2
21391 21393 21395 21396 1 180.0000771 15.1670000 2
21391 21393 21395 21397 1 180.0000771 15.1670000 2
21394 21393 21395 21396 1 180.0000771 15.1670000 2
21394 21393 21395 21397 1 180.0000771 15.1670000 2
21391 21395 21393 21394 4 180.0000771 4.6024000 2
21388 21395 21397 21398 4 180.0000771 4.6024000 2
21393 21395 21397 21398 1 180.0000771 15.1670000 2
21396 21395 21397 21398 1 180.0000771 15.1670000 2
21388 21397 21395 21393 1 180.0000771 15.1670000 2
21388 21397 21395 21396 1 180.0000771 15.1670000 2
21393 21397 21395 21396 4 180.0000771 4.6024000 2
21399 21400 21401 21402 1 180.0000771 15.1670000 2
21399 21400 21401 21403 1 180.0000771 15.1670000 2
21402 21400 21401 21403 4 180.0000771 4.6024000 2
21399 21400 21409 21401 4 180.0000771 4.6024000 2
21399 21400 21409 21407 1 180.0000771 15.1670000 2
21399 21400 21409 21410 1 180.0000771 15.1670000 2
21401 21400 21409 21407 1 180.0000771 15.1670000 2
21401 21400 21409 21410 1 180.0000771 15.1670000 2
21402 21401 21400 21409 1 180.0000771 15.1670000 2
21403 21401 21400 21409 1 180.0000771 15.1670000 2
21400 21401 21403 21404 1 180.0000771 15.1670000 2
21400 21401 21403 21405 1 180.0000771 15.1670000 2
21402 21401 21403 21404 1 180.0000771 15.1670000 2
21402 21401 21403 21405 1 180.0000771 15.1670000 2
21401 21403 21405 21406 1 180.0000771 15.1670000 2
21401 21403 21405 21407 1 180.0000771 15.1670000 2
21404 21403 21405 21406 1 180.0000771 15.1670000 2
21404 21403 21405 21407 1 180.0000771 15.1670000 2
21401 21405 21403 21404 4 180.0000771 4.6024000 2
21403 21405 21407 21408 1 180.0000771 15.1670000 2
21403 21405 21407 21409 1 180.0000771 15.1670000 2
21406 21405 21407 21408 1 180.0000771 15.1670000 2
21406 21405 21407 21409 1 180.0000771 15.1670000 2
21403 21407 21405 21406 4 180.0000771 4.6024000 2
21400 21407 21409 21410 4 180.0000771 4.6024000 2
21405 21407 21409 21410 1 180.0000771 15.1670000 2
21408 21407 21409 21410 1 180.0000771 15.1670000 2
21400 21409 21407 21405 1 180.0000771 15.1670000 2
21400 21409 21407 21408 1 180.0000771 15.1670000 2
21405 21409 21407 21408 4 180.0000771 4.6024000 2
21411 21412 21413 21414 1 180.0000771 15.1670000 2
21411 21412 21413 21415 1 180.0000771 15.1670000 2
21414 21412 21413 21415 4 180.0000771 4.6024000 2
21411 21412 21421 21413 4 180.0000771 4.6024000 2
21411 21412 21421 21419 1 180.0000771 15.1670000 2
21411 21412 21421 21422 1 180.0000771 15.1670000 2
21413 21412 21421 21419 1 180.0000771 15.1670000 2
21413 21412 21421 21422 1 180.0000771 15.1670000 2
21414 21413 21412 21421 1 180.0000771 15.1670000 2
21415 21413 21412 21421 1 180.0000771 15.1670000 2
21412 21413 21415 21416 1 180.0000771 15.1670000 2
21412 21413 21415 21417 1 180.0000771 15.1670000 2
21414 21413 21415 21416 1 180.0000771 15.1670000 2
21414 21413 21415 21417 1 180.0000771 15.1670000 2
21413 21415 21417 21418 1 180.0000771 15.1670000 2
21413 21415 21417 21419 1 180.0000771 15.1670000 2
21416 21415 21417 21418 1 180.0000771 15.1670000 2
21416 21415 21417 21419 1 180.0000771 15.1670000 2
21413 21417 21415 21416 4 180.0000771 4.6024000 2
21415 21417 21419 21420 1 180.0000771 15.1670000 2
21415 21417 21419 21421 1 180.0000771 15.1670000 2
21418 21417 21419 21420 1 180.0000771 15.1670000 2
21418 21417 21419 21421 1 180.0000771 15.1670000 2
21415 21419 21417 21418 4 180.0000771 4.6024000 2
21412 21419 21421 21422 4 180.0000771 4.6024000 2
21417 21419 21421 21422 1 180.0000771 15.1670000 2
21420 21419 21421 21422 1 180.0000771 15.1670000 2
21412 21421 21419 21417 1 180.0000771 15.1670000 2
21412 21421 21419 21420 1 180.0000771 15.1670000 2
21417 21421 21419 21420 4 180.0000771 4.6024000 2
21423 21424 21425 21426 1 180.0000771 15.1670000 2
21423 21424 21425 21427 1 180.0000771 15.1670000 2
21426 21424 21425 21427 4 180.0000771 4.6024000 2
21423 21424 21433 21425 4 180.0000771 4.6024000 2
21423 21424 21433 21431 1 180.0000771 15.1670000 2
21423 21424 21433 21434 1 180.0000771 15.1670000 2
21425 21424 21433 21431 1 180.0000771 15.1670000 2
21425 21424 21433 21434 1 180.0000771 15.1670000 2
21426 21425 21424 21433 1 180.0000771 15.1670000 2
21427 21425 21424 21433 1 180.0000771 15.1670000 2
21424 21425 21427 21428 1 180.0000771 15.1670000 2
21424 21425 21427 21429 1 180.0000771 15.1670000 2
21426 21425 21427 21428 1 180.0000771 15.1670000 2
21426 21425 21427 21429 1 180.0000771 15.1670000 2
21425 21427 21429 21430 1 180.0000771 15.1670000 2
21425 21427 21429 21431 1 180.0000771 15.1670000 2
21428 21427 21429 21430 1 180.0000771 15.1670000 2
21428 21427 21429 21431 1 180.0000771 15.1670000 2
21425 21429 21427 21428 4 180.0000771 4.6024000 2
21427 21429 21431 21432 1 180.0000771 15.1670000 2
21427 21429 21431 21433 1 180.0000771 15.1670000 2
21430 21429 21431 21432 1 180.0000771 15.1670000 2
21430 21429 21431 21433 1 180.0000771 15.1670000 2
21427 21431 21429 21430 4 180.0000771 4.6024000 2
21424 21431 21433 21434 4 180.0000771 4.6024000 2
21429 21431 21433 21434 1 180.0000771 15.1670000 2
21432 21431 21433 21434 1 180.0000771 15.1670000 2
21424 21433 21431 21429 1 180.0000771 15.1670000 2
21424 21433 21431 21432 1 180.0000771 15.1670000 2
21429 21433 21431 21432 4 180.0000771 4.6024000 2
21435 21436 21437 21438 1 180.0000771 15.1670000 2
21435 21436 21437 21439 1 180.0000771 15.1670000 2
21438 21436 21437 21439 4 180.0000771 4.6024000 2
21435 21436 21445 21437 4 180.0000771 4.6024000 2
21435 21436 21445 21443 1 180.0000771 15.1670000 2
21435 21436 21445 21446 1 180.0000771 15.1670000 2
21437 21436 21445 21443 1 180.0000771 15.1670000 2
21437 21436 21445 21446 1 180.0000771 15.1670000 2
21438 21437 21436 21445 1 180.0000771 15.1670000 2
21439 21437 21436 21445 1 180.0000771 15.1670000 2
21436 21437 21439 21440 1 180.0000771 15.1670000 2
21436 21437 21439 21441 1 180.0000771 15.1670000 2
21438 21437 21439 21440 1 180.0000771 15.1670000 2
21438 21437 21439 21441 1 180.0000771 15.1670000 2
21437 21439 21441 21442 1 180.0000771 15.1670000 2
21437 21439 21441 21443 1 180.0000771 15.1670000 2
21440 21439 21441 21442 1 180.0000771 15.1670000 2
21440 21439 21441 21443 1 180.0000771 15.1670000 2
21437 21441 21439 21440 4 180.0000771 4.6024000 2
21439 21441 21443 21444 1 180.0000771 15.1670000 2
21439 21441 21443 21445 1 180.0000771 15.1670000 2
21442 21441 21443 21444 1 180.0000771 15.1670000 2
21442 21441 21443 21445 1 180.0000771 15.1670000 2
21439 21443 21441 21442 4 180.0000771 4.6024000 2
21436 21443 21445 21446 4 180.0000771 4.6024000 2
21441 21443 21445 21446 1 180.0000771 15.1670000 2
21444 21443 21445 21446 1 180.0000771 15.1670000 2
21436 21445 21443 21441 1 180.0000771 15.1670000 2
21436 21445 21443 21444 1 180.0000771 15.1670000 2
21441 21445 21443 21444 4 180.0000771 4.6024000 2
21447 21448 21449 21450 1 180.0000771 15.1670000 2
21447 21448 21449 21451 1 180.0000771 15.1670000 2
21450 21448 21449 21451 4 180.0000771 4.6024000 2
21447 21448 21457 21449 4 180.0000771 4.6024000 2
21447 21448 21457 21455 1 180.0000771 15.1670000 2
21447 21448 21457 21458 1 180.0000771 15.1670000 2
21449 21448 21457 21455 1 180.0000771 15.1670000 2
21449 21448 21457 21458 1 180.0000771 15.1670000 2
21450 21449 21448 21457 1 180.0000771 15.1670000 2
21451 21449 21448 21457 1 180.0000771 15.1670000 2
21448 21449 21451 21452 1 180.0000771 15.1670000 2
21448 21449 21451 21453 1 180.0000771 15.1670000 2
21450 21449 21451 21452 1 180.0000771 15.1670000 2
21450 21449 21451 21453 1 180.0000771 15.1670000 2
21449 21451 21453 21454 1 180.0000771 15.1670000 2
21449 21451 21453 21455 1 180.0000771 15.1670000 2
21452 21451 21453 21454 1 180.0000771 15.1670000 2
21452 21451 21453 21455 1 180.0000771 15.1670000 2
21449 21453 21451 21452 4 180.0000771 4.6024000 2
21451 21453 21455 21456 1 180.0000771 15.1670000 2
21451 21453 21455 21457 1 180.0000771 15.1670000 2
21454 21453 21455 21456 1 180.0000771 15.1670000 2
21454 21453 21455 21457 1 180.0000771 15.1670000 2
21451 21455 21453 21454 4 180.0000771 4.6024000 2
21448 21455 21457 21458 4 180.0000771 4.6024000 2
21453 21455 21457 21458 1 180.0000771 15.1670000 2
21456 21455 21457 21458 1 180.0000771 15.1670000 2
21448 21457 21455 21453 1 180.0000771 15.1670000 2
21448 21457 21455 21456 1 180.0000771 15.1670000 2
21453 21457 21455 21456 4 180.0000771 4.6024000 2
21459 21460 21461 21462 1 180.0000771 15.1670000 2
21459 21460 21461 21463 1 180.0000771 15.1670000 2
21462 21460 21461 21463 4 180.0000771 4.6024000 2
21459 21460 21469 21461 4 180.0000771 4.6024000 2
21459 21460 21469 21467 1 180.0000771 15.1670000 2
21459 21460 21469 21470 1 180.0000771 15.1670000 2
21461 21460 21469 21467 1 180.0000771 15.1670000 2
21461 21460 21469 21470 1 180.0000771 15.1670000 2
21462 21461 21460 21469 1 180.0000771 15.1670000 2
21463 21461 21460 21469 1 180.0000771 15.1670000 2
21460 21461 21463 21464 1 180.0000771 15.1670000 2
21460 21461 21463 21465 1 180.0000771 15.1670000 2
21462 21461 21463 21464 1 180.0000771 15.1670000 2
21462 21461 21463 21465 1 180.0000771 15.1670000 2
21461 21463 21465 21466 1 180.0000771 15.1670000 2
21461 21463 21465 21467 1 180.0000771 15.1670000 2
21464 21463 21465 21466 1 180.0000771 15.1670000 2
21464 21463 21465 21467 1 180.0000771 15.1670000 2
21461 21465 21463 21464 4 180.0000771 4.6024000 2
21463 21465 21467 21468 1 180.0000771 15.1670000 2
21463 21465 21467 21469 1 180.0000771 15.1670000 2
21466 21465 21467 21468 1 180.0000771 15.1670000 2
21466 21465 21467 21469 1 180.0000771 15.1670000 2
21463 21467 21465 21466 4 180.0000771 4.6024000 2
21460 21467 21469 21470 4 180.0000771 4.6024000 2
21465 21467 21469 21470 1 180.0000771 15.1670000 2
21468 21467 21469 21470 1 180.0000771 15.1670000 2
21460 21469 21467 21465 1 180.0000771 15.1670000 2
21460 21469 21467 21468 1 180.0000771 15.1670000 2
21465 21469 21467 21468 4 180.0000771 4.6024000 2
21471 21472 21473 21474 1 180.0000771 15.1670000 2
21471 21472 21473 21475 1 180.0000771 15.1670000 2
21474 21472 21473 21475 4 180.0000771 4.6024000 2
21471 21472 21481 21473 4 180.0000771 4.6024000 2
21471 21472 21481 21479 1 180.0000771 15.1670000 2
21471 21472 21481 21482 1 180.0000771 15.1670000 2
21473 21472 21481 21479 1 180.0000771 15.1670000 2
21473 21472 21481 21482 1 180.0000771 15.1670000 2
21474 21473 21472 21481 1 180.0000771 15.1670000 2
21475 21473 21472 21481 1 180.0000771 15.1670000 2
21472 21473 21475 21476 1 180.0000771 15.1670000 2
21472 21473 21475 21477 1 180.0000771 15.1670000 2
21474 21473 21475 21476 1 180.0000771 15.1670000 2
21474 21473 21475 21477 1 180.0000771 15.1670000 2
21473 21475 21477 21478 1 180.0000771 15.1670000 2
21473 21475 21477 21479 1 180.0000771 15.1670000 2
21476 21475 21477 21478 1 180.0000771 15.1670000 2
21476 21475 21477 21479 1 180.0000771 15.1670000 2
21473 21477 21475 21476 4 180.0000771 4.6024000 2
21475 21477 21479 21480 1 180.0000771 15.1670000 2
21475 21477 21479 21481 1 180.0000771 15.1670000 2
21478 21477 21479 21480 1 180.0000771 15.1670000 2
21478 21477 21479 21481 1 180.0000771 15.1670000 2
21475 21479 21477 21478 4 180.0000771 4.6024000 2
21472 21479 21481 21482 4 180.0000771 4.6024000 2
21477 21479 21481 21482 1 180.0000771 15.1670000 2
21480 21479 21481 21482 1 180.0000771 15.1670000 2
21472 21481 21479 21477 1 180.0000771 15.1670000 2
21472 21481 21479 21480 1 180.0000771 15.1670000 2
21477 21481 21479 21480 4 180.0000771 4.6024000 2
21483 21484 21485 21486 1 180.0000771 15.1670000 2
21483 21484 21485 21487 1 180.0000771 15.1670000 2
21486 21484 21485 21487 4 180.0000771 4.6024000 2
21483 21484 21493 21485 4 180.0000771 4.6024000 2
21483 21484 21493 21491 1 180.0000771 15.1670000 2
21483 21484 21493 21494 1 180.0000771 15.1670000 2
21485 21484 21493 21491 1 180.0000771 15.1670000 2
21485 21484 21493 21494 1 180.0000771 15.1670000 2
21486 21485 21484 21493 1 180.0000771 15.1670000 2
21487 21485 21484 21493 1 180.0000771 15.1670000 2
21484 21485 21487 21488 1 180.0000771 15.1670000 2
21484 21485 21487 21489 1 180.0000771 15.1670000 2
21486 21485 21487 21488 1 180.0000771 15.1670000 2
21486 21485 21487 21489 1 180.0000771 15.1670000 2
21485 21487 21489 21490 1 180.0000771 15.1670000 2
21485 21487 21489 21491 1 180.0000771 15.1670000 2
21488 21487 21489 21490 1 180.0000771 15.1670000 2
21488 21487 21489 21491 1 180.0000771 15.1670000 2
21485 21489 21487 21488 4 180.0000771 4.6024000 2
21487 21489 21491 21492 1 180.0000771 15.1670000 2
21487 21489 21491 21493 1 180.0000771 15.1670000 2
21490 21489 21491 21492 1 180.0000771 15.1670000 2
21490 21489 21491 21493 1 180.0000771 15.1670000 2
21487 21491 21489 21490 4 180.0000771 4.6024000 2
21484 21491 21493 21494 4 180.0000771 4.6024000 2
21489 21491 21493 21494 1 180.0000771 15.1670000 2
21492 21491 21493 21494 1 180.0000771 15.1670000 2
21484 21493 21491 21489 1 180.0000771 15.1670000 2
21484 21493 21491 21492 1 180.0000771 15.1670000 2
21489 21493 21491 21492 4 180.0000771 4.6024000 2
21495 21496 21497 21498 1 180.0000771 15.1670000 2
21495 21496 21497 21499 1 180.0000771 15.1670000 2
21498 21496 21497 21499 4 180.0000771 4.6024000 2
21495 21496 21505 21497 4 180.0000771 4.6024000 2
21495 21496 21505 21503 1 180.0000771 15.1670000 2
21495 21496 21505 21506 1 180.0000771 15.1670000 2
21497 21496 21505 21503 1 180.0000771 15.1670000 2
21497 21496 21505 21506 1 180.0000771 15.1670000 2
21498 21497 21496 21505 1 180.0000771 15.1670000 2
21499 21497 21496 21505 1 180.0000771 15.1670000 2
21496 21497 21499 21500 1 180.0000771 15.1670000 2
21496 21497 21499 21501 1 180.0000771 15.1670000 2
21498 21497 21499 21500 1 180.0000771 15.1670000 2
21498 21497 21499 21501 1 180.0000771 15.1670000 2
21497 21499 21501 21502 1 180.0000771 15.1670000 2
21497 21499 21501 21503 1 180.0000771 15.1670000 2
21500 21499 21501 21502 1 180.0000771 15.1670000 2
21500 21499 21501 21503 1 180.0000771 15.1670000 2
21497 21501 21499 21500 4 180.0000771 4.6024000 2
21499 21501 21503 21504 1 180.0000771 15.1670000 2
21499 21501 21503 21505 1 180.0000771 15.1670000 2
21502 21501 21503 21504 1 180.0000771 15.1670000 2
21502 21501 21503 21505 1 180.0000771 15.1670000 2
21499 21503 21501 21502 4 180.0000771 4.6024000 2
21496 21503 21505 21506 4 180.0000771 4.6024000 2
21501 21503 21505 21506 1 180.0000771 15.1670000 2
21504 21503 21505 21506 1 180.0000771 15.1670000 2
21496 21505 21503 21501 1 180.0000771 15.1670000 2
21496 21505 21503 21504 1 180.0000771 15.1670000 2
21501 21505 21503 21504 4 180.0000771 4.6024000 2
